# vtk DataFile Version 3.0
This file was generated by ESMC 
ASCII
DATASET UNSTRUCTURED_GRID
POINTS 10980 double
-0.0130885 0.0226699 -0.999657
-0.0218097 0.0377755 -0.999048
-0.0305243 0.0528696 -0.998135
-0.0392295 0.0679476 -0.996917
-0.0479229 0.0830049 -0.995396
-0.0566016 0.0980369 -0.993572
-0.0652631 0.113039 -0.991445
-0.0739047 0.128007 -0.989016
-0.0825238 0.142935 -0.986286
-0.0911178 0.157821 -0.983255
-0.099684 0.172658 -0.979925
-0.10822 0.187442 -0.976296
-0.116723 0.20217 -0.97237
-0.12519 0.216835 -0.968148
-0.133619 0.231435 -0.96363
-0.142008 0.245965 -0.95882
-0.150353 0.260419 -0.953717
-0.158652 0.274794 -0.948324
-0.166903 0.289085 -0.942641
-0.175104 0.303288 -0.936672
-0.183251 0.317399 -0.930418
-0.191342 0.331414 -0.92388
-0.199375 0.345327 -0.91706
-0.207347 0.359135 -0.909961
-0.215256 0.372834 -0.902585
-0.223099 0.386419 -0.894934
-0.230874 0.399886 -0.887011
-0.238579 0.413232 -0.878817
-0.246212 0.426451 -0.870356
-0.253769 0.439541 -0.861629
-0.261249 0.452497 -0.85264
-0.26865 0.465315 -0.843391
-0.275968 0.477991 -0.833886
-0.283203 0.490522 -0.824126
-0.290351 0.502904 -0.814116
-0.297411 0.515132 -0.803857
-0.304381 0.527203 -0.793353
-0.311257 0.539113 -0.782608
-0.318039 0.55086 -0.771625
-0.324724 0.562439 -0.760406
-0.33131 0.573846 -0.748956
-0.337795 0.585078 -0.737277
-0.344177 0.596133 -0.725374
-0.350455 0.607005 -0.71325
-0.356625 0.617693 -0.700909
-0.362687 0.628193 -0.688355
-0.368639 0.638501 -0.67559
-0.374478 0.648615 -0.66262
-0.380203 0.658531 -0.649448
-0.385812 0.668246 -0.636078
-0.391304 0.677759 -0.622515
-0.396677 0.687064 -0.608761
-0.401928 0.69616 -0.594823
-0.407058 0.705045 -0.580703
-0.412063 0.713714 -0.566406
-0.416943 0.722166 -0.551937
-0.421696 0.730398 -0.5373
-0.42632 0.738408 -0.522499
-0.430815 0.746193 -0.507538
-0.435178 0.75375 -0.492424
-0.439409 0.761078 -0.477159
-0.443505 0.768174 -0.461749
-0.447467 0.775036 -0.446198
-0.451293 0.781662 -0.430511
-0.454981 0.78805 -0.414693
-0.45853 0.794197 -0.398749
-0.46194 0.800103 -0.382683
-0.465209 0.805765 -0.366501
-0.468336 0.811182 -0.350207
-0.471321 0.816351 -0.333807
-0.474162 0.821272 -0.317305
-0.476858 0.825943 -0.300706
-0.47941 0.830362 -0.284015
-0.481815 0.834528 -0.267238
-0.484074 0.83844 -0.25038
-0.486185 0.842097 -0.233445
-0.488148 0.845497 -0.21644
-0.489962 0.84864 -0.199368
-0.491627 0.851524 -0.182236
-0.493143 0.854148 -0.165048
-0.494508 0.856513 -0.147809
-0.495722 0.858616 -0.130526
-0.496786 0.860458 -0.113203
-0.497698 0.862038 -0.0958458
-0.498459 0.863356 -0.0784591
-0.499067 0.86441 -0.0610485
-0.499524 0.865201 -0.0436194
-0.499829 0.865729 -0.0261769
-0.499981 0.865992 -0.00872654
-0.499981 0.865992 0.00872654
-0.499829 0.865729 0.0261769
-0.499524 0.865201 0.0436194
-0.499067 0.86441 0.0610485
-0.498459 0.863356 0.0784591
-0.497698 0.862038 0.0958458
-0.496786 0.860458 0.113203
-0.495722 0.858616 0.130526
-0.494508 0.856513 0.147809
-0.493143 0.854148 0.165048
-0.491627 0.851524 0.182236
-0.489962 0.84864 0.199368
-0.488148 0.845497 0.21644
-0.486185 0.842097 0.233445
-0.484074 0.83844 0.25038
-0.481815 0.834528 0.267238
-0.47941 0.830362 0.284015
-0.476858 0.825943 0.300706
-0.474162 0.821272 0.317305
-0.471321 0.816351 0.333807
-0.468336 0.811182 0.350207
-0.465209 0.805765 0.366501
-0.46194 0.800103 0.382683
-0.45853 0.794197 0.398749
-0.454981 0.78805 0.414693
-0.451293 0.781662 0.430511
-0.447467 0.775036 0.446198
-0.443505 0.768174 0.461749
-0.439409 0.761078 0.477159
-0.435178 0.75375 0.492424
-0.430815 0.746193 0.507538
-0.42632 0.738408 0.522499
-0.421696 0.730398 0.5373
-0.416943 0.722166 0.551937
-0.412063 0.713714 0.566406
-0.407058 0.705045 0.580703
-0.401928 0.69616 0.594823
-0.396677 0.687064 0.608761
-0.391304 0.677759 0.622515
-0.385812 0.668246 0.636078
-0.380203 0.658531 0.649448
-0.374478 0.648615 0.66262
-0.368639 0.638501 0.67559
-0.362687 0.628193 0.688355
-0.356625 0.617693 0.700909
-0.350455 0.607005 0.71325
-0.344177 0.596133 0.725374
-0.337795 0.585078 0.737277
-0.33131 0.573846 0.748956
-0.324724 0.562439 0.760406
-0.318039 0.55086 0.771625
-0.311257 0.539113 0.782608
-0.304381 0.527203 0.793353
-0.297411 0.515132 0.803857
-0.290351 0.502904 0.814116
-0.283203 0.490522 0.824126
-0.275968 0.477991 0.833886
-0.26865 0.465315 0.843391
-0.261249 0.452497 0.85264
-0.253769 0.439541 0.861629
-0.246212 0.426451 0.870356
-0.238579 0.413232 0.878817
-0.230874 0.399886 0.887011
-0.223099 0.386419 0.894934
-0.215256 0.372834 0.902585
-0.207347 0.359135 0.909961
-0.199375 0.345327 0.91706
-0.191342 0.331414 0.92388
-0.183251 0.317399 0.930418
-0.175104 0.303288 0.936672
-0.166903 0.289085 0.942641
-0.158652 0.274794 0.948324
-0.150353 0.260419 0.953717
-0.142008 0.245965 0.95882
-0.133619 0.231435 0.96363
-0.12519 0.216835 0.968148
-0.116723 0.20217 0.97237
-0.10822 0.187442 0.976296
-0.099684 0.172658 0.979925
-0.0911178 0.157821 0.983255
-0.0825238 0.142935 0.986286
-0.0739047 0.128007 0.989016
-0.0652631 0.113039 0.991445
-0.0566016 0.0980369 0.993572
-0.0479229 0.0830049 0.995396
-0.0392295 0.0679476 0.996917
-0.0305243 0.0528696 0.998135
-0.0218097 0.0377755 0.999048
-0.0130885 0.0226699 0.999657
-0.0134821 0.022438 -0.999657
-0.0138717 0.0221993 -0.999657
-0.014257 0.0219538 -0.999657
-0.014638 0.0217017 -0.999657
-0.0150145 0.0214429 -0.999657
-0.0153864 0.0211776 -0.999657
-0.0157537 0.0209058 -0.999657
-0.0161161 0.0206277 -0.999657
-0.0164737 0.0203433 -0.999657
-0.0168262 0.0200527 -0.999657
-0.0171736 0.019756 -0.999657
-0.0175158 0.0194533 -0.999657
-0.0178526 0.0191446 -0.999657
-0.018184 0.0188301 -0.999657
-0.0185099 0.0185099 -0.999657
-0.0188301 0.018184 -0.999657
-0.0191446 0.0178526 -0.999657
-0.0194533 0.0175158 -0.999657
-0.019756 0.0171736 -0.999657
-0.0200527 0.0168262 -0.999657
-0.0203433 0.0164737 -0.999657
-0.0206277 0.0161161 -0.999657
-0.0209058 0.0157537 -0.999657
-0.0211776 0.0153864 -0.999657
-0.0214429 0.0150145 -0.999657
-0.0217017 0.014638 -0.999657
-0.0219538 0.014257 -0.999657
-0.0221993 0.0138717 -0.999657
-0.022438 0.0134821 -0.999657
-0.0226699 0.0130885 -0.999657
-0.0228949 0.0126908 -0.999657
-0.0231129 0.0122893 -0.999657
-0.0233238 0.0118841 -0.999657
-0.0235277 0.0114752 -0.999657
-0.0237244 0.0110629 -0.999657
-0.0239138 0.0106471 -0.999657
-0.024096 0.0102281 -0.999657
-0.0242708 0.00980606 -0.999657
-0.0244383 0.00938098 -0.999657
-0.0245983 0.00895304 -0.999657
-0.0247508 0.00852238 -0.999657
-0.0248958 0.00808912 -0.999657
-0.0250331 0.0076534 -0.999657
-0.0251629 0.00721534 -0.999657
-0.025285 0.00677509 -0.999657
-0.0253994 0.00633278 -0.999657
-0.025506 0.00588853 -0.999657
-0.0256049 0.00544249 -0.999657
-0.025696 0.0049948 -0.999657
-0.0257793 0.00454558 -0.999657
-0.0258547 0.00409498 -0.999657
-0.0259222 0.00364313 -0.999657
-0.0259818 0.00319017 -0.999657
-0.0260335 0.00273624 -0.999657
-0.0260773 0.00228147 -0.999657
-0.0261132 0.00182601 -0.999657
-0.0261411 0.00137 -0.999657
-0.026161 0.000913562 -0.999657
-0.026173 0.000456851 -0.999657
-0.0224656 0.0373891 -0.999048
-0.0231148 0.0369913 -0.999048
-0.0237568 0.0365823 -0.999048
-0.0243917 0.0361621 -0.999048
-0.0250191 0.0357309 -0.999048
-0.0256388 0.0352888 -0.999048
-0.0262508 0.034836 -0.999048
-0.0268548 0.0343725 -0.999048
-0.0274506 0.0338986 -0.999048
-0.028038 0.0334144 -0.999048
-0.0286169 0.03292 -0.999048
-0.0291871 0.0324155 -0.999048
-0.0297484 0.0319012 -0.999048
-0.0303006 0.0313772 -0.999048
-0.0308436 0.0308436 -0.999048
-0.0313772 0.0303006 -0.999048
-0.0319012 0.0297484 -0.999048
-0.0324155 0.0291871 -0.999048
-0.03292 0.0286169 -0.999048
-0.0334144 0.028038 -0.999048
-0.0338986 0.0274506 -0.999048
-0.0343725 0.0268548 -0.999048
-0.034836 0.0262508 -0.999048
-0.0352888 0.0256388 -0.999048
-0.0357309 0.0250191 -0.999048
-0.0361621 0.0243917 -0.999048
-0.0365823 0.0237568 -0.999048
-0.0369913 0.0231148 -0.999048
-0.0373891 0.0224656 -0.999048
-0.0377755 0.0218097 -0.999048
-0.0381504 0.0211471 -0.999048
-0.0385136 0.0204781 -0.999048
-0.0388652 0.0198028 -0.999048
-0.0392048 0.0191215 -0.999048
-0.0395326 0.0184343 -0.999048
-0.0398483 0.0177416 -0.999048
-0.0401519 0.0170435 -0.999048
-0.0404432 0.0163401 -0.999048
-0.0407222 0.0156318 -0.999048
-0.0409888 0.0149187 -0.999048
-0.0412429 0.0142011 -0.999048
-0.0414845 0.0134791 -0.999048
-0.0417134 0.0127531 -0.999048
-0.0419296 0.0120231 -0.999048
-0.0421331 0.0112895 -0.999048
-0.0423237 0.0105525 -0.999048
-0.0425014 0.00981223 -0.999048
-0.0426662 0.00906898 -0.999048
-0.042818 0.00832297 -0.999048
-0.0429567 0.00757443 -0.999048
-0.0430824 0.00682358 -0.999048
-0.0431949 0.00607065 -0.999048
-0.0432943 0.00531587 -0.999048
-0.0433804 0.00455947 -0.999048
-0.0434534 0.00380168 -0.999048
-0.0435131 0.00304273 -0.999048
-0.0435596 0.00228286 -0.999048
-0.0435928 0.00152229 -0.999048
-0.0436127 0.000761263 -0.999048
-0.0314423 0.0523288 -0.998135
-0.0323508 0.0517721 -0.998135
-0.0332494 0.0511996 -0.998135
-0.0341379 0.0506115 -0.998135
-0.035016 0.050008 -0.998135
-0.0358834 0.0493893 -0.998135
-0.0367399 0.0487555 -0.998135
-0.0375852 0.0481069 -0.998135
-0.0384191 0.0474436 -0.998135
-0.0392412 0.0467659 -0.998135
-0.0400514 0.0460739 -0.998135
-0.0408494 0.0453679 -0.998135
-0.041635 0.0446481 -0.998135
-0.0424079 0.0439146 -0.998135
-0.0431678 0.0431678 -0.998135
-0.0439146 0.0424079 -0.998135
-0.0446481 0.041635 -0.998135
-0.0453679 0.0408494 -0.998135
-0.0460739 0.0400514 -0.998135
-0.0467659 0.0392412 -0.998135
-0.0474436 0.0384191 -0.998135
-0.0481069 0.0375852 -0.998135
-0.0487555 0.0367399 -0.998135
-0.0493893 0.0358834 -0.998135
-0.050008 0.035016 -0.998135
-0.0506115 0.0341379 -0.998135
-0.0511996 0.0332494 -0.998135
-0.0517721 0.0323508 -0.998135
-0.0523288 0.0314423 -0.998135
-0.0528696 0.0305243 -0.998135
-0.0533943 0.0295969 -0.998135
-0.0539027 0.0286606 -0.998135
-0.0543946 0.0277155 -0.998135
-0.0548701 0.0267619 -0.998135
-0.0553288 0.0258002 -0.998135
-0.0557706 0.0248307 -0.998135
-0.0561955 0.0238536 -0.998135
[...]
CELL_DATA 10740
SCALARS _ELEM_NUM double 1
LOOKUP_TABLE default
121 122 123 124 125 126 127 128 129 130 131 132 133 134 135 136 137 138 139 140 141 142 143 144 145 146 147 148 149 150 151 152 153 154 155 156 157 158 159 160 161 162 163 164 165 166 167 168 169 170 171 172 173 174 175 176 177 178 179 180 481 482 483 484 485 486 487 488 489 490 491 492 493 494 495 496 497 498 499 500 501 502 503 504 505 506 507 508 509 510 511 512 513 514 515 516 517 518 519 520 521 522 523 524 525 526 527 528 529 530 531 532 533 534 535 536 537 538 539 540 841 842 843 844 845 846 847 848 849 850 851 852 853 854 855 856 857 858 859 860 861 862 863 864 865 866 867 868 869 870 871 872 873 874 875 876 877 878 879 880 881 882 883 884 885 886 887 888 889 890 891 892 893 894 895 896 897 898 899 900 1201 1202 1203 1204 1205 1206 1207 1208 1209 1210 1211 1212 1213 1214 1215 1216 1217 1218 1219 1220 1221 1222 1223 1224 1225 1226 1227 1228 1229 1230 1231 1232 1233 1234 1235 1236 1237 1238 1239 1240 1241 1242 1243 1244 1245 1246 1247 1248 1249 1250 1251 1252 1253 1254 1255 1256 1257 1258 1259 1260 1561 1562 1563 1564 1565 1566 1567 1568 1569 1570 1571 1572 1573 1574 1575 1576 1577 1578 1579 1580 1581 1582 1583 1584 1585 1586 1587 1588 1589 1590 1591 1592 1593 1594 1595 1596 1597 1598 1599 1600 1601 1602 1603 1604 1605 1606 1607 1608 1609 1610 1611 1612 1613 1614 1615 1616 1617 1618 1619 1620 1921 1922 1923 1924 1925 1926 1927 1928 1929 1930 1931 1932 1933 1934 1935 1936 1937 1938 1939 1940 1941 1942 1943 1944 1945 1946 1947 1948 1949 1950 1951 1952 1953 1954 1955 1956 1957 1958 1959 1960 1961 1962 1963 1964 1965 1966 1967 1968 1969 1970 1971 1972 1973 1974 1975 1976 1977 1978 1979 1980 2281 2282 2283 2284 2285 2286 2287 2288 2289 2290 2291 2292 2293 2294 2295 2296 2297 2298 2299 2300 2301 2302 2303 2304 2305 2306 2307 2308 2309 2310 2311 2312 2313 2314 2315 2316 2317 2318 2319 2320 2321 2322 2323 2324 2325 2326 2327 2328 2329 2330 2331 2332 2333 2334 2335 2336 2337 2338 2339 2340 2641 2642 2643 2644 2645 2646 2647 2648 2649 2650 2651 2652 2653 2654 2655 2656 2657 2658 2659 2660 2661 2662 2663 2664 2665 2666 2667 2668 2669 2670 2671 2672 2673 2674 2675 2676 2677 2678 2679 2680 2681 2682 2683 2684 2685 2686 2687 2688 2689 2690 2691 2692 2693 2694 2695 2696 2697 2698 2699 2700 3001 3002 3003 3004 3005 3006 3007 3008 3009 3010 3011 3012 3013 3014 3015 3016 3017 3018 3019 3020 3021 3022 3023 3024 3025 3026 3027 3028 3029 3030 3031 3032 3033 3034 3035 3036 3037 3038 3039 3040 3041 3042 3043 3044 3045 3046 3047 3048 3049 3050 3051 3052 3053 3054 3055 3056 3057 3058 3059 3060 3361 3362 3363 3364 3365 3366 3367 3368 3369 3370 3371 3372 3373 3374 3375 3376 3377 3378 3379 3380 3381 3382 3383 3384 3385 3386 3387 3388 3389 3390 3391 3392 3393 3394 3395 3396 3397 3398 3399 3400 3401 3402 3403 3404 3405 3406 3407 3408 3409 3410 3411 3412 3413 3414 3415 3416 3417 3418 3419 3420 3721 3722 3723 3724 3725 3726 3727 3728 3729 3730 3731 3732 3733 3734 3735 3736 3737 3738 3739 3740 3741 3742 3743 3744 3745 3746 3747 3748 3749 3750 3751 3752 3753 3754 3755 3756 3757 3758 3759 3760 3761 3762 3763 3764 3765 3766 3767 3768 3769 3770 3771 3772 3773 3774 3775 3776 3777 3778 3779 3780 4081 4082 4083 4084 4085 4086 4087 4088 4089 4090 4091 4092 4093 4094 4095 4096 4097 4098 4099 4100 4101 4102 4103 4104 4105 4106 4107 4108 4109 4110 4111 4112 4113 4114 4115 4116 4117 4118 4119 4120 4121 4122 4123 4124 4125 4126 4127 4128 4129 4130 4131 4132 4133 4134 4135 4136 4137 4138 4139 4140 4441 4442 4443 4444 4445 4446 4447 4448 4449 4450 4451 4452 4453 4454 4455 4456 4457 4458 4459 4460 4461 4462 4463 4464 4465 4466 4467 4468 4469 4470 4471 4472 4473 4474 4475 4476 4477 4478 4479 4480 4481 4482 4483 4484 4485 4486 4487 4488 4489 4490 4491 4492 4493 4494 4495 4496 4497 4498 4499 4500 4801 4802 4803 4804 4805 4806 4807 4808 4809 4810 4811 4812 4813 4814 4815 4816 4817 4818 4819 4820 4821 4822 4823 4824 4825 4826 4827 4828 4829 4830 4831 4832 4833 4834 4835 4836 4837 4838 4839 4840 4841 4842 4843 4844 4845 4846 4847 4848 4849 4850 4851 4852 4853 4854 4855 4856 4857 4858 4859 4860 5161 5162 5163 5164 5165 5166 5167 5168 5169 5170 5171 5172 5173 5174 5175 5176 5177 5178 5179 5180 5181 5182 5183 5184 5185 5186 5187 5188 5189 5190 5191 5192 5193 5194 5195 5196 5197 5198 5199 5200 5201 5202 5203 5204 5205 5206 5207 5208 5209 5210 5211 5212 5213 5214 5215 5216 5217 5218 5219 5220 5521 5522 5523 5524 5525 5526 5527 5528 5529 5530 5531 5532 5533 5534 5535 5536 5537 5538 5539 5540 5541 5542 5543 5544 5545 5546 5547 5548 5549 5550 5551 5552 5553 5554 5555 5556 5557 5558 5559 5560 5561 5562 5563 5564 5565 5566 5567 5568 5569 5570 5571 5572 5573 5574 5575 5576 5577 5578 5579 5580 5881 5882 5883 5884 5885 5886 5887 5888 5889 5890 5891 5892 5893 5894 5895 5896 5897 5898 5899 5900 5901 5902 5903 5904 5905 5906 5907 5908 5909 5910 5911 5912 5913 5914 5915 5916 5917 5918 5919 5920 5921 5922 5923 5924 5925 5926 5927 5928 5929 5930 5931 5932 5933 5934 5935 5936 5937 5938 5939 5940 6241 6242 6243 6244 6245 6246 6247 6248 6249 6250 6251 6252 6253 6254 6255 6256 6257 6258 6259 6260 6261 6262 6263 6264 6265 6266 6267 6268 6269 6270 6271 6272 6273 6274 6275 6276 6277 6278 6279 6280 6281 6282 6283 6284 6285 6286 6287 6288 6289 6290 6291 6292 6293 6294 6295 6296 6297 6298 6299 6300 6601 6602 6603 6604 6605 6606 6607 6608 6609 6610 6611 6612 6613 6614 6615 6616 6617 6618 6619 6620 6621 6622 6623 6624 6625 6626 6627 6628 6629 6630 6631 6632 6633 6634 6635 6636 6637 6638 6639 6640 6641 6642 6643 6644 6645 6646 6647 6648 6649 6650 6651 6652 6653 6654 6655 6656 6657 6658 6659 6660 6961 6962 6963 6964 6965 6966 6967 6968 6969 6970 6971 6972 6973 6974 6975 6976 6977 6978 6979 6980 6981 6982 6983 6984 6985 6986 6987 6988 6989 6990 6991 6992 6993 6994 6995 6996 6997 6998 6999 7000 7001 7002 7003 7004 7005 7006 7007 7008 7009 7010 7011 7012 7013 7014 7015 7016 7017 7018 7019 7020 7321 7322 7323 7324 7325 7326 7327 7328 7329 7330 7331 7332 7333 7334 7335 7336 7337 7338 7339 7340 7341 7342 7343 7344 7345 7346 7347 7348 7349 7350 7351 7352 7353 7354 7355 7356 7357 7358 7359 7360 7361 7362 7363 7364 7365 7366 7367 7368 7369 7370 7371 7372 7373 7374 7375 7376 7377 7378 7379 7380 7681 7682 7683 7684 7685 7686 7687 7688 7689 7690 7691 7692 7693 7694 7695 7696 7697 7698 7699 7700 7701 7702 7703 7704 7705 7706 7707 7708 7709 7710 7711 7712 7713 7714 7715 7716 7717 7718 7719 7720 7721 7722 7723 7724 7725 7726 7727 7728 7729 7730 7731 7732 7733 7734 7735 7736 7737 7738 7739 7740 8041 8042 8043 8044 8045 8046 8047 8048 8049 8050 8051 8052 8053 8054 8055 8056 8057 8058 8059 8060 8061 8062 8063 8064 8065 8066 8067 8068 8069 8070 8071 8072 8073 8074 8075 8076 8077 8078 8079 8080 8081 8082 8083 8084 8085 8086 8087 8088 8089 8090 8091 8092 8093 8094 8095 8096 8097 8098 8099 8100 8401 8402 8403 8404 8405 8406 8407 8408 8409 8410 8411 8412 8413 8414 8415 8416 8417 8418 8419 8420 8421 8422 8423 8424 8425 8426 8427 8428 8429 8430 8431 8432 8433 8434 8435 8436 8437 8438 8439 8440 8441 8442 8443 8444 8445 8446 8447 8448 8449 8450 8451 8452 8453 8454 8455 8456 8457 8458 8459 8460 8761 8762 8763 8764 8765 8766 8767 8768 8769 8770 8771 8772 8773 8774 8775 8776 8777 8778 8779 8780 8781 8782 8783 8784 8785 8786 8787 8788 8789 8790 8791 8792 8793 8794 8795 8796 8797 8798 8799 8800 8801 8802 8803 8804 8805 8806 8807 8808 8809 8810 8811 8812 8813 8814 8815 8816 8817 8818 8819 8820 9121 9122 9123 9124 9125 9126 9127 9128 9129 9130 9131 9132 9133 9134 9135 9136 9137 9138 9139 9140 9141 9142 9143 9144 9145 9146 9147 9148 9149 9150 9151 9152 9153 9154 9155 9156 9157 9158 9159 9160 9161 9162 9163 9164 9165 9166 9167 9168 9169 9170 9171 9172 9173 9174 9175 9176 9177 9178 9179 9180 9481 9482 9483 9484 9485 9486 9487 9488 9489 9490 9491 9492 9493 9494 9495 9496 9497 9498 9499 9500 9501 9502 9503 9504 9505 9506 9507 9508 9509 9510 9511 9512 9513 9514 9515 9516 9517 9518 9519 9520 9521 9522 9523 9524 9525 9526 9527 9528 9529 9530 9531 9532 9533 9534 9535 9536 9537 9538 9539 9540 9841 9842 9843 9844 9845 9846 9847 9848 9849 9850 9851 9852 9853 9854 9855 9856 9857 9858 9859 9860 9861 9862 9863 9864 9865 9866 9867 9868 9869 9870 9871 9872 9873 9874 9875 9876 9877 9878 9879 9880 9881 9882 9883 9884 9885 9886 9887 9888 9889 9890 9891 9892 9893 9894 9895 9896 9897 9898 9899 9900 10201 10202 10203 10204 10205 10206 10207 10208 10209 10210 10211 10212 10213 10214 10215 10216 10217 10218 10219 10220 10221 10222 10223 10224 10225 10226 10227 10228 10229 10230 10231 10232 10233 10234 10235 10236 10237 10238 10239 10240 10241 10242 10243 10244 10245 10246 10247 10248 10249 10250 10251 10252 10253 10254 10255 10256 10257 10258 10259 10260 10561 10562 10563 10564 10565 10566 10567 10568 10569 10570 10571 10572 10573 10574 10575 10576 10577 10578 10579 10580 10581 10582 10583 10584 10585 10586 10587 10588 10589 10590 10591 10592 10593 10594 10595 10596 10597 10598 10599 10600 10601 10602 10603 10604 10605 10606 10607 10608 10609 10610 10611 10612 10613 10614 10615 10616 10617 10618 10619 10620 10921 10922 10923 10924 10925 10926 10927 10928 10929 10930 10931 10932 10933 10934 10935 10936 10937 10938 10939 10940 10941 10942 10943 10944 10945 10946 10947 10948 10949 10950 10951 10952 10953 10954 10955 10956 10957 10958 10959 10960 10961 10962 10963 10964 10965 10966 10967 10968 10969 10970 10971 10972 10973 10974 10975 10976 10977 10978 10979 10980 11281 11282 11283 11284 11285 11286 11287 11288 11289 11290 11291 11292 11293 11294 11295 11296 11297 11298 11299 11300 11301 11302 11303 11304 11305 11306 11307 11308 11309 11310 11311 11312 11313 11314 11315 11316 11317 11318 11319 11320 11321 11322 11323 11324 11325 11326 11327 11328 11329 11330 11331 11332 11333 11334 11335 11336 11337 11338 11339 11340 11641 11642 11643 11644 11645 11646 11647 11648 11649 11650 11651 11652 11653 11654 11655 11656 11657 11658 11659 11660 11661 11662 11663 11664 11665 11666 11667 11668 11669 11670 11671 11672 11673 11674 11675 11676 11677 11678 11679 11680 11681 11682 11683 11684 11685 11686 11687 11688 11689 11690 11691 11692 11693 11694 11695 11696 11697 11698 11699 11700 12001 12002 12003 12004 12005 12006 12007 12008 12009 12010 12011 12012 12013 12014 12015 12016 12017 12018 12019 12020 12021 12022 12023 12024 12025 12026 12027 12028 12029 12030 12031 12032 12033 12034 12035 12036 12037 12038 12039 12040 12041 12042 12043 12044 12045 12046 12047 12048 12049 12050 12051 12052 12053 12054 12055 12056 12057 12058 12059 12060 12361 12362 12363 12364 12365 12366 12367 12368 12369 12370 12371 12372 12373 12374 12375 12376 12377 12378 12379 12380 12381 12382 12383 12384 12385 12386 12387 12388 12389 12390 12391 12392 12393 12394 12395 12396 12397 12398 12399 12400 12401 12402 12403 12404 12405 12406 12407 12408 12409 12410 12411 12412 12413 12414 12415 12416 12417 12418 12419 12420 12721 12722 12723 12724 12725 12726 12727 12728 12729 12730 12731 12732 12733 12734 12735 12736 12737 12738 12739 12740 12741 12742 12743 12744 12745 12746 12747 12748 12749 12750 12751 12752 12753 12754 12755 12756 12757 12758 12759 12760 12761 12762 12763 12764 12765 12766 12767 12768 12769 12770 12771 12772 12773 12774 12775 12776 12777 12778 12779 12780 13081 13082 13083 13084 13085 13086 13087 13088 13089 13090 13091 13092 13093 13094 13095 13096 13097 13098 13099 13100 13101 13102 13103 13104 13105 13106 13107 13108 13109 13110 13111 13112 13113 13114 13115 13116 13117 13118 13119 13120 13121 13122 13123 13124 13125 13126 13127 13128 13129 13130 13131 13132 13133 13134 13135 13136 13137 13138 13139 13140 13441 13442 13443 13444 13445 13446 13447 13448 13449 13450 13451 13452 13453 13454 13455 13456 13457 13458 13459 13460 13461 13462 13463 13464 13465 13466 13467 13468 13469 13470 13471 13472 13473 13474 13475 13476 13477 13478 13479 13480 13481 13482 13483 13484 13485 13486 13487 13488 13489 13490 13491 13492 13493 13494 13495 13496 13497 13498 13499 13500 13801 13802 13803 13804 13805 13806 13807 13808 13809 13810 13811 13812 13813 13814 13815 13816 13817 13818 13819 13820 13821 13822 13823 13824 13825 13826 13827 13828 13829 13830 13831 13832 13833 13834 13835 13836 13837 13838 13839 13840 13841 13842 13843 13844 13845 13846 13847 13848 13849 13850 13851 13852 13853 13854 13855 13856 13857 13858 13859 13860 14161 14162 14163 14164 14165 14166 14167 14168 14169 14170 14171 14172 14173 14174 14175 14176 14177 14178 14179 14180 14181 14182 14183 14184 14185 14186 14187 14188 14189 14190 14191 14192 14193 14194 14195 14196 14197 14198 14199 14200 14201 14202 14203 14204 14205 14206 14207 14208 14209 14210 14211 14212 14213 14214 14215 14216 14217 14218 14219 14220 14521 14522 14523 14524 14525 14526 14527 14528 14529 14530 14531 14532 14533 14534 14535 14536 14537 14538 14539 14540 14541 14542 14543 14544 14545 14546 14547 14548 14549 14550 14551 14552 14553 14554 14555 14556 14557 14558 14559 14560 14561 14562 14563 14564 14565 14566 14567 14568 14569 14570 14571 14572 14573 14574 14575 14576 14577 14578 14579 14580 14881 14882 14883 14884 14885 14886 14887 14888 14889 14890 14891 14892 14893 14894 14895 14896 14897 14898 14899 14900 14901 14902 14903 14904 14905 14906 14907 14908 14909 14910 14911 14912 14913 14914 14915 14916 14917 14918 14919 14920 14921 14922 14923 14924 14925 14926 14927 14928 14929 14930 14931 14932 14933 14934 14935 14936 14937 14938 14939 14940 15241 15242 15243 15244 15245 15246 15247 15248 15249 15250 15251 15252 15253 15254 15255 15256 15257 15258 15259 15260 15261 15262 15263 15264 15265 15266 15267 15268 15269 15270 15271 15272 15273 15274 15275 15276 15277 15278 15279 15280 15281 15282 15283 15284 15285 15286 15287 15288 15289 15290 15291 15292 15293 15294 15295 15296 15297 15298 15299 15300 15601 15602 15603 15604 15605 15606 15607 15608 15609 15610 15611 15612 15613 15614 15615 15616 15617 15618 15619 15620 15621 15622 15623 15624 15625 15626 15627 15628 15629 15630 15631 15632 15633 15634 15635 15636 15637 15638 15639 15640 15641 15642 15643 15644 15645 15646 15647 15648 15649 15650 15651 15652 15653 15654 15655 15656 15657 15658 15659 15660 15961 15962 15963 15964 15965 15966 15967 15968 15969 15970 15971 15972 15973 15974 15975 15976 15977 15978 15979 15980 15981 15982 15983 15984 15985 15986 15987 15988 15989 15990 15991 15992 15993 15994 15995 15996 15997 15998 15999 16000 16001 16002 16003 16004 16005 16006 16007 16008 16009 16010 16011 16012 16013 16014 16015 16016 16017 16018 16019 16020 16321 16322 16323 16324 16325 16326 16327 16328 16329 16330 16331 16332 16333 16334 16335 16336 16337 16338 16339 16340 16341 16342 16343 16344 16345 16346 16347 16348 16349 16350 16351 16352 16353 16354 16355 16356 16357 16358 16359 16360 16361 16362 16363 16364 16365 16366 16367 16368 16369 16370 16371 16372 16373 16374 16375 16376 16377 16378 16379 16380 16681 16682 16683 16684 16685 16686 16687 16688 16689 16690 16691 16692 16693 16694 16695 16696 16697 16698 16699 16700 16701 16702 16703 16704 16705 16706 16707 16708 16709 16710 16711 16712 16713 16714 16715 16716 16717 16718 16719 16720 16721 16722 16723 16724 16725 16726 16727 16728 16729 16730 16731 16732 16733 16734 16735 16736 16737 16738 16739 16740 17041 17042 17043 17044 17045 17046 17047 17048 17049 17050 17051 17052 17053 17054 17055 17056 17057 17058 17059 17060 17061 17062 17063 17064 17065 17066 17067 17068 17069 17070 17071 17072 17073 17074 17075 17076 17077 17078 17079 17080 17081 17082 17083 17084 17085 17086 17087 17088 17089 17090 17091 17092 17093 17094 17095 17096 17097 17098 17099 17100 17401 17402 17403 17404 17405 17406 17407 17408 17409 17410 17411 17412 17413 17414 17415 17416 17417 17418 17419 17420 17421 17422 17423 17424 17425 17426 17427 17428 17429 17430 17431 17432 17433 17434 17435 17436 17437 17438 17439 17440 17441 17442 17443 17444 17445 17446 17447 17448 17449 17450 17451 17452 17453 17454 17455 17456 17457 17458 17459 17460 17761 17762 17763 17764 17765 17766 17767 17768 17769 17770 17771 17772 17773 17774 17775 17776 17777 17778 17779 17780 17781 17782 17783 17784 17785 17786 17787 17788 17789 17790 17791 17792 17793 17794 17795 17796 17797 17798 17799 17800 17801 17802 17803 17804 17805 17806 17807 17808 17809 17810 17811 17812 17813 17814 17815 17816 17817 17818 17819 17820 18121 18122 18123 18124 18125 18126 18127 18128 18129 18130 18131 18132 18133 18134 18135 18136 18137 18138 18139 18140 18141 18142 18143 18144 18145 18146 18147 18148 18149 18150 18151 18152 18153 18154 18155 18156 18157 18158 18159 18160 18161 18162 18163 18164 18165 18166 18167 18168 18169 18170 18171 18172 18173 18174 18175 18176 18177 18178 18179 18180 18481 18482 18483 18484 18485 18486 18487 18488 18489 18490 18491 18492 18493 18494 18495 18496 18497 18498 18499 18500 18501 18502 18503 18504 18505 18506 18507 18508 18509 18510 18511 18512 18513 18514 18515 18516 18517 18518 18519 18520 18521 18522 18523 18524 18525 18526 18527 18528 18529 18530 18531 18532 18533 18534 18535 18536 18537 18538 18539 18540 18841 18842 18843 18844 18845 18846 18847 18848 18849 18850 18851 18852 18853 18854 18855 18856 18857 18858 18859 18860 18861 18862 18863 18864 18865 18866 18867 18868 18869 18870 18871 18872 18873 18874 18875 18876 18877 18878 18879 18880 18881 18882 18883 18884 18885 18886 18887 18888 18889 18890 18891 18892 18893 18894 18895 18896 18897 18898 18899 18900 19201 19202 19203 19204 19205 19206 19207 19208 19209 19210 19211 19212 19213 19214 19215 19216 19217 19218 19219 19220 19221 19222 19223 19224 19225 19226 19227 19228 19229 19230 19231 19232 19233 19234 19235 19236 19237 19238 19239 19240 19241 19242 19243 19244 19245 19246 19247 19248 19249 19250 19251 19252 19253 19254 19255 19256 19257 19258 19259 19260 19561 19562 19563 19564 19565 19566 19567 19568 19569 19570 19571 19572 19573 19574 19575 19576 19577 19578 19579 19580 19581 19582 19583 19584 19585 19586 19587 19588 19589 19590 19591 19592 19593 19594 19595 19596 19597 19598 19599 19600 19601 19602 19603 19604 19605 19606 19607 19608 19609 19610 19611 19612 19613 19614 19615 19616 19617 19618 19619 19620 19921 19922 19923 19924 19925 19926 19927 19928 19929 19930 19931 19932 19933 19934 19935 19936 19937 19938 19939 19940 19941 19942 19943 19944 19945 19946 19947 19948 19949 19950 19951 19952 19953 19954 19955 19956 19957 19958 19959 19960 19961 19962 19963 19964 19965 19966 19967 19968 19969 19970 19971 19972 19973 19974 19975 19976 19977 19978 19979 19980 20281 20282 20283 20284 20285 20286 20287 20288 20289 20290 20291 20292 20293 20294 20295 20296 20297 20298 20299 20300 20301 20302 20303 20304 20305 20306 20307 20308 20309 20310 20311 20312 20313 20314 20315 20316 20317 20318 20319 20320 20321 20322 20323 20324 20325 20326 20327 20328 20329 20330 20331 20332 20333 20334 20335 20336 20337 20338 20339 20340 20641 20642 20643 20644 20645 20646 20647 20648 20649 20650 20651 20652 20653 20654 20655 20656 20657 20658 20659 20660 20661 20662 20663 20664 20665 20666 20667 20668 20669 20670 20671 20672 20673 20674 20675 20676 20677 20678 20679 20680 20681 20682 20683 20684 20685 20686 20687 20688 20689 20690 20691 20692 20693 20694 20695 20696 20697 20698 20699 20700 21001 21002 21003 21004 21005 21006 21007 21008 21009 21010 21011 21012 21013 21014 21015 21016 21017 21018 21019 21020 21021 21022 21023 21024 21025 21026 21027 21028 21029 21030 21031 21032 21033 21034 21035 21036 21037 21038 21039 21040 21041 21042 21043 21044 21045 21046 21047 21048 21049 21050 21051 21052 21053 21054 21055 21056 21057 21058 21059 21060 21361 21362 21363 21364 21365 21366 21367 21368 21369 21370 21371 21372 21373 21374 21375 21376 21377 21378 21379 21380 21381 21382 21383 21384 21385 21386 21387 21388 21389 21390 21391 21392 21393 21394 21395 21396 21397 21398 21399 21400 21401 21402 21403 21404 21405 21406 21407 21408 21409 21410 21411 21412 21413 21414 21415 21416 21417 21418 21419 21420 21721 21722 21723 21724 21725 21726 21727 21728 21729 21730 21731 21732 21733 21734 21735 21736 21737 21738 21739 21740 21741 21742 21743 21744 21745 21746 21747 21748 21749 21750 21751 21752 2175