# vtk DataFile Version 3.0
This file was generated by ESMC 
ASCII
DATASET UNSTRUCTURED_GRID
POINTS 10980 double
-0.0261769 3.20575e-18 -0.999657
-0.0436194 5.34183e-18 -0.999048
-0.0610485 7.47629e-18 -0.998135
-0.0784591 9.60847e-18 -0.996917
-0.0958458 1.17377e-17 -0.995396
-0.113203 1.38634e-17 -0.993572
-0.130526 1.59848e-17 -0.991445
-0.147809 1.81014e-17 -0.989016
-0.165048 2.02125e-17 -0.986286
-0.182236 2.23174e-17 -0.983255
-0.199368 2.44155e-17 -0.979925
-0.21644 2.65062e-17 -0.976296
-0.233445 2.85888e-17 -0.97237
-0.25038 3.06627e-17 -0.968148
-0.267238 3.27273e-17 -0.96363
-0.284015 3.47818e-17 -0.95882
-0.300706 3.68258e-17 -0.953717
-0.317305 3.88586e-17 -0.948324
-0.333807 4.08796e-17 -0.942641
-0.350207 4.2888e-17 -0.936672
-0.366501 4.48835e-17 -0.930418
-0.382683 4.68652e-17 -0.92388
-0.398749 4.88327e-17 -0.91706
-0.414693 5.07853e-17 -0.909961
-0.430511 5.27224e-17 -0.902585
-0.446198 5.46435e-17 -0.894934
-0.461749 5.65479e-17 -0.887011
-0.477159 5.84351e-17 -0.878817
-0.492424 6.03045e-17 -0.870356
-0.507538 6.21555e-17 -0.861629
-0.522499 6.39876e-17 -0.85264
-0.5373 6.58002e-17 -0.843391
-0.551937 6.75928e-17 -0.833886
-0.566406 6.93648e-17 -0.824126
-0.580703 7.11156e-17 -0.814116
-0.594823 7.28448e-17 -0.803857
-0.608761 7.45518e-17 -0.793353
-0.622515 7.62361e-17 -0.782608
-0.636078 7.78971e-17 -0.771625
-0.649448 7.95344e-17 -0.760406
-0.66262 8.11476e-17 -0.748956
-0.67559 8.27359e-17 -0.737277
-0.688355 8.42991e-17 -0.725374
-0.700909 8.58366e-17 -0.71325
-0.71325 8.7348e-17 -0.700909
-0.725374 8.88327e-17 -0.688355
-0.737277 9.02904e-17 -0.67559
-0.748956 9.17206e-17 -0.66262
-0.760406 9.31229e-17 -0.649448
-0.771625 9.44968e-17 -0.636078
-0.782608 9.58419e-17 -0.622515
-0.793353 9.71578e-17 -0.608761
-0.803857 9.84441e-17 -0.594823
-0.814116 9.97004e-17 -0.580703
-0.824126 1.00926e-16 -0.566406
-0.833886 1.02122e-16 -0.551937
-0.843391 1.03286e-16 -0.5373
-0.85264 1.04418e-16 -0.522499
-0.861629 1.05519e-16 -0.507538
-0.870356 1.06588e-16 -0.492424
-0.878817 1.07624e-16 -0.477159
-0.887011 1.08627e-16 -0.461749
-0.894934 1.09598e-16 -0.446198
-0.902585 1.10535e-16 -0.430511
-0.909961 1.11438e-16 -0.414693
-0.91706 1.12307e-16 -0.398749
-0.92388 1.13143e-16 -0.382683
-0.930418 1.13943e-16 -0.366501
-0.936672 1.14709e-16 -0.350207
-0.942641 1.1544e-16 -0.333807
-0.948324 1.16136e-16 -0.317305
-0.953717 1.16797e-16 -0.300706
-0.95882 1.17422e-16 -0.284015
-0.96363 1.18011e-16 -0.267238
-0.968148 1.18564e-16 -0.25038
-0.97237 1.19081e-16 -0.233445
-0.976296 1.19562e-16 -0.21644
-0.979925 1.20006e-16 -0.199368
-0.983255 1.20414e-16 -0.182236
-0.986286 1.20785e-16 -0.165048
-0.989016 1.2112e-16 -0.147809
-0.991445 1.21417e-16 -0.130526
-0.993572 1.21677e-16 -0.113203
-0.995396 1.21901e-16 -0.0958458
-0.996917 1.22087e-16 -0.0784591
-0.998135 1.22236e-16 -0.0610485
-0.999048 1.22348e-16 -0.0436194
-0.999657 1.22423e-16 -0.0261769
-0.999962 1.2246e-16 -0.00872654
-0.999962 1.2246e-16 0.00872654
-0.999657 1.22423e-16 0.0261769
-0.999048 1.22348e-16 0.0436194
-0.998135 1.22236e-16 0.0610485
-0.996917 1.22087e-16 0.0784591
-0.995396 1.21901e-16 0.0958458
-0.993572 1.21677e-16 0.113203
-0.991445 1.21417e-16 0.130526
-0.989016 1.2112e-16 0.147809
-0.986286 1.20785e-16 0.165048
-0.983255 1.20414e-16 0.182236
-0.979925 1.20006e-16 0.199368
-0.976296 1.19562e-16 0.21644
-0.97237 1.19081e-16 0.233445
-0.968148 1.18564e-16 0.25038
-0.96363 1.18011e-16 0.267238
-0.95882 1.17422e-16 0.284015
-0.953717 1.16797e-16 0.300706
-0.948324 1.16136e-16 0.317305
-0.942641 1.1544e-16 0.333807
-0.936672 1.14709e-16 0.350207
-0.930418 1.13943e-16 0.366501
-0.92388 1.13143e-16 0.382683
-0.91706 1.12307e-16 0.398749
-0.909961 1.11438e-16 0.414693
-0.902585 1.10535e-16 0.430511
-0.894934 1.09598e-16 0.446198
-0.887011 1.08627e-16 0.461749
-0.878817 1.07624e-16 0.477159
-0.870356 1.06588e-16 0.492424
-0.861629 1.05519e-16 0.507538
-0.85264 1.04418e-16 0.522499
-0.843391 1.03286e-16 0.5373
-0.833886 1.02122e-16 0.551937
-0.824126 1.00926e-16 0.566406
-0.814116 9.97004e-17 0.580703
-0.803857 9.84441e-17 0.594823
-0.793353 9.71578e-17 0.608761
-0.782608 9.58419e-17 0.622515
-0.771625 9.44968e-17 0.636078
-0.760406 9.31229e-17 0.649448
-0.748956 9.17206e-17 0.66262
-0.737277 9.02904e-17 0.67559
-0.725374 8.88327e-17 0.688355
-0.71325 8.7348e-17 0.700909
-0.700909 8.58366e-17 0.71325
-0.688355 8.42991e-17 0.725374
-0.67559 8.27359e-17 0.737277
-0.66262 8.11476e-17 0.748956
-0.649448 7.95344e-17 0.760406
-0.636078 7.78971e-17 0.771625
-0.622515 7.62361e-17 0.782608
-0.608761 7.45518e-17 0.793353
-0.594823 7.28448e-17 0.803857
-0.580703 7.11156e-17 0.814116
-0.566406 6.93648e-17 0.824126
-0.551937 6.75928e-17 0.833886
-0.5373 6.58002e-17 0.843391
-0.522499 6.39876e-17 0.85264
-0.507538 6.21555e-17 0.861629
-0.492424 6.03045e-17 0.870356
-0.477159 5.84351e-17 0.878817
-0.461749 5.65479e-17 0.887011
-0.446198 5.46435e-17 0.894934
-0.430511 5.27224e-17 0.902585
-0.414693 5.07853e-17 0.909961
-0.398749 4.88327e-17 0.91706
-0.382683 4.68652e-17 0.92388
-0.366501 4.48835e-17 0.930418
-0.350207 4.2888e-17 0.936672
-0.333807 4.08796e-17 0.942641
-0.317305 3.88586e-17 0.948324
-0.300706 3.68258e-17 0.953717
-0.284015 3.47818e-17 0.95882
-0.267238 3.27273e-17 0.96363
-0.25038 3.06627e-17 0.968148
-0.233445 2.85888e-17 0.97237
-0.21644 2.65062e-17 0.976296
-0.199368 2.44155e-17 0.979925
-0.182236 2.23174e-17 0.983255
-0.165048 2.02125e-17 0.986286
-0.147809 1.81014e-17 0.989016
-0.130526 1.59848e-17 0.991445
-0.113203 1.38634e-17 0.993572
-0.0958458 1.17377e-17 0.995396
-0.0784591 9.60847e-18 0.996917
-0.0610485 7.47629e-18 0.998135
-0.0436194 5.34183e-18 0.999048
-0.0261769 3.20575e-18 0.999657
-0.026173 -0.000456851 -0.999657
-0.026161 -0.000913562 -0.999657
-0.0261411 -0.00137 -0.999657
-0.0261132 -0.00182601 -0.999657
-0.0260773 -0.00228147 -0.999657
-0.0260335 -0.00273624 -0.999657
-0.0259818 -0.00319017 -0.999657
-0.0259222 -0.00364313 -0.999657
-0.0258547 -0.00409498 -0.999657
-0.0257793 -0.00454558 -0.999657
-0.025696 -0.0049948 -0.999657
-0.0256049 -0.00544249 -0.999657
-0.025506 -0.00588853 -0.999657
-0.0253994 -0.00633278 -0.999657
-0.025285 -0.00677509 -0.999657
-0.0251629 -0.00721534 -0.999657
-0.0250331 -0.0076534 -0.999657
-0.0248958 -0.00808912 -0.999657
-0.0247508 -0.00852238 -0.999657
-0.0245983 -0.00895304 -0.999657
-0.0244383 -0.00938098 -0.999657
-0.0242708 -0.00980606 -0.999657
-0.024096 -0.0102281 -0.999657
-0.0239138 -0.0106471 -0.999657
-0.0237244 -0.0110629 -0.999657
-0.0235277 -0.0114752 -0.999657
-0.0233238 -0.0118841 -0.999657
-0.0231129 -0.0122893 -0.999657
-0.0228949 -0.0126908 -0.999657
-0.0226699 -0.0130885 -0.999657
-0.022438 -0.0134821 -0.999657
-0.0221993 -0.0138717 -0.999657
-0.0219538 -0.014257 -0.999657
-0.0217017 -0.014638 -0.999657
-0.0214429 -0.0150145 -0.999657
-0.0211776 -0.0153864 -0.999657
-0.0209058 -0.0157537 -0.999657
-0.0206277 -0.0161161 -0.999657
-0.0203433 -0.0164737 -0.999657
-0.0200527 -0.0168262 -0.999657
-0.019756 -0.0171736 -0.999657
-0.0194533 -0.0175158 -0.999657
-0.0191446 -0.0178526 -0.999657
-0.0188301 -0.018184 -0.999657
-0.0185099 -0.0185099 -0.999657
-0.018184 -0.0188301 -0.999657
-0.0178526 -0.0191446 -0.999657
-0.0175158 -0.0194533 -0.999657
-0.0171736 -0.019756 -0.999657
-0.0168262 -0.0200527 -0.999657
-0.0164737 -0.0203433 -0.999657
-0.0161161 -0.0206277 -0.999657
-0.0157537 -0.0209058 -0.999657
-0.0153864 -0.0211776 -0.999657
-0.0150145 -0.0214429 -0.999657
-0.014638 -0.0217017 -0.999657
-0.014257 -0.0219538 -0.999657
-0.0138717 -0.0221993 -0.999657
-0.0134821 -0.022438 -0.999657
-0.0436127 -0.000761263 -0.999048
-0.0435928 -0.00152229 -0.999048
-0.0435596 -0.00228286 -0.999048
-0.0435131 -0.00304273 -0.999048
-0.0434534 -0.00380168 -0.999048
-0.0433804 -0.00455947 -0.999048
-0.0432943 -0.00531587 -0.999048
-0.0431949 -0.00607065 -0.999048
-0.0430824 -0.00682358 -0.999048
-0.0429567 -0.00757443 -0.999048
-0.042818 -0.00832297 -0.999048
-0.0426662 -0.00906898 -0.999048
-0.0425014 -0.00981223 -0.999048
-0.0423237 -0.0105525 -0.999048
-0.0421331 -0.0112895 -0.999048
-0.0419296 -0.0120231 -0.999048
-0.0417134 -0.0127531 -0.999048
-0.0414845 -0.0134791 -0.999048
-0.0412429 -0.0142011 -0.999048
-0.0409888 -0.0149187 -0.999048
-0.0407222 -0.0156318 -0.999048
-0.0404432 -0.0163401 -0.999048
-0.0401519 -0.0170435 -0.999048
-0.0398483 -0.0177416 -0.999048
-0.0395326 -0.0184343 -0.999048
-0.0392048 -0.0191215 -0.999048
-0.0388652 -0.0198028 -0.999048
-0.0385136 -0.0204781 -0.999048
-0.0381504 -0.0211471 -0.999048
-0.0377755 -0.0218097 -0.999048
-0.0373891 -0.0224656 -0.999048
-0.0369913 -0.0231148 -0.999048
-0.0365823 -0.0237568 -0.999048
-0.0361621 -0.0243917 -0.999048
-0.0357309 -0.0250191 -0.999048
-0.0352888 -0.0256388 -0.999048
-0.034836 -0.0262508 -0.999048
-0.0343725 -0.0268548 -0.999048
-0.0338986 -0.0274506 -0.999048
-0.0334144 -0.028038 -0.999048
-0.03292 -0.0286169 -0.999048
-0.0324155 -0.0291871 -0.999048
-0.0319012 -0.0297484 -0.999048
-0.0313772 -0.0303006 -0.999048
-0.0308436 -0.0308436 -0.999048
-0.0303006 -0.0313772 -0.999048
-0.0297484 -0.0319012 -0.999048
-0.0291871 -0.0324155 -0.999048
-0.0286169 -0.03292 -0.999048
-0.028038 -0.0334144 -0.999048
-0.0274506 -0.0338986 -0.999048
-0.0268548 -0.0343725 -0.999048
-0.0262508 -0.034836 -0.999048
-0.0256388 -0.0352888 -0.999048
-0.0250191 -0.0357309 -0.999048
-0.0243917 -0.0361621 -0.999048
-0.0237568 -0.0365823 -0.999048
-0.0231148 -0.0369913 -0.999048
-0.0224656 -0.0373891 -0.999048
-0.0610392 -0.00106544 -0.998135
-0.0610114 -0.00213056 -0.998135
-0.0609649 -0.00319503 -0.998135
-0.0608998 -0.00425853 -0.998135
-0.0608162 -0.00532073 -0.998135
-0.0607141 -0.00638131 -0.998135
-0.0605935 -0.00743995 -0.998135
-0.0604544 -0.00849631 -0.998135
-0.0602969 -0.0095501 -0.998135
-0.0601211 -0.010601 -0.998135
-0.0599269 -0.0116486 -0.998135
-0.0597145 -0.0126927 -0.998135
-0.0594839 -0.0137329 -0.998135
-0.0592351 -0.014769 -0.998135
-0.0589684 -0.0158005 -0.998135
-0.0586836 -0.0168273 -0.998135
[...]
CELL_DATA 10740
SCALARS _ELEM_NUM double 1
LOOKUP_TABLE default
181 182 183 184 185 186 187 188 189 190 191 192 193 194 195 196 197 198 199 200 201 202 203 204 205 206 207 208 209 210 211 212 213 214 215 216 217 218 219 220 221 222 223 224 225 226 227 228 229 230 231 232 233 234 235 236 237 238 239 240 541 542 543 544 545 546 547 548 549 550 551 552 553 554 555 556 557 558 559 560 561 562 563 564 565 566 567 568 569 570 571 572 573 574 575 576 577 578 579 580 581 582 583 584 585 586 587 588 589 590 591 592 593 594 595 596 597 598 599 600 901 902 903 904 905 906 907 908 909 910 911 912 913 914 915 916 917 918 919 920 921 922 923 924 925 926 927 928 929 930 931 932 933 934 935 936 937 938 939 940 941 942 943 944 945 946 947 948 949 950 951 952 953 954 955 956 957 958 959 960 1261 1262 1263 1264 1265 1266 1267 1268 1269 1270 1271 1272 1273 1274 1275 1276 1277 1278 1279 1280 1281 1282 1283 1284 1285 1286 1287 1288 1289 1290 1291 1292 1293 1294 1295 1296 1297 1298 1299 1300 1301 1302 1303 1304 1305 1306 1307 1308 1309 1310 1311 1312 1313 1314 1315 1316 1317 1318 1319 1320 1621 1622 1623 1624 1625 1626 1627 1628 1629 1630 1631 1632 1633 1634 1635 1636 1637 1638 1639 1640 1641 1642 1643 1644 1645 1646 1647 1648 1649 1650 1651 1652 1653 1654 1655 1656 1657 1658 1659 1660 1661 1662 1663 1664 1665 1666 1667 1668 1669 1670 1671 1672 1673 1674 1675 1676 1677 1678 1679 1680 1981 1982 1983 1984 1985 1986 1987 1988 1989 1990 1991 1992 1993 1994 1995 1996 1997 1998 1999 2000 2001 2002 2003 2004 2005 2006 2007 2008 2009 2010 2011 2012 2013 2014 2015 2016 2017 2018 2019 2020 2021 2022 2023 2024 2025 2026 2027 2028 2029 2030 2031 2032 2033 2034 2035 2036 2037 2038 2039 2040 2341 2342 2343 2344 2345 2346 2347 2348 2349 2350 2351 2352 2353 2354 2355 2356 2357 2358 2359 2360 2361 2362 2363 2364 2365 2366 2367 2368 2369 2370 2371 2372 2373 2374 2375 2376 2377 2378 2379 2380 2381 2382 2383 2384 2385 2386 2387 2388 2389 2390 2391 2392 2393 2394 2395 2396 2397 2398 2399 2400 2701 2702 2703 2704 2705 2706 2707 2708 2709 2710 2711 2712 2713 2714 2715 2716 2717 2718 2719 2720 2721 2722 2723 2724 2725 2726 2727 2728 2729 2730 2731 2732 2733 2734 2735 2736 2737 2738 2739 2740 2741 2742 2743 2744 2745 2746 2747 2748 2749 2750 2751 2752 2753 2754 2755 2756 2757 2758 2759 2760 3061 3062 3063 3064 3065 3066 3067 3068 3069 3070 3071 3072 3073 3074 3075 3076 3077 3078 3079 3080 3081 3082 3083 3084 3085 3086 3087 3088 3089 3090 3091 3092 3093 3094 3095 3096 3097 3098 3099 3100 3101 3102 3103 3104 3105 3106 3107 3108 3109 3110 3111 3112 3113 3114 3115 3116 3117 3118 3119 3120 3421 3422 3423 3424 3425 3426 3427 3428 3429 3430 3431 3432 3433 3434 3435 3436 3437 3438 3439 3440 3441 3442 3443 3444 3445 3446 3447 3448 3449 3450 3451 3452 3453 3454 3455 3456 3457 3458 3459 3460 3461 3462 3463 3464 3465 3466 3467 3468 3469 3470 3471 3472 3473 3474 3475 3476 3477 3478 3479 3480 3781 3782 3783 3784 3785 3786 3787 3788 3789 3790 3791 3792 3793 3794 3795 3796 3797 3798 3799 3800 3801 3802 3803 3804 3805 3806 3807 3808 3809 3810 3811 3812 3813 3814 3815 3816 3817 3818 3819 3820 3821 3822 3823 3824 3825 3826 3827 3828 3829 3830 3831 3832 3833 3834 3835 3836 3837 3838 3839 3840 4141 4142 4143 4144 4145 4146 4147 4148 4149 4150 4151 4152 4153 4154 4155 4156 4157 4158 4159 4160 4161 4162 4163 4164 4165 4166 4167 4168 4169 4170 4171 4172 4173 4174 4175 4176 4177 4178 4179 4180 4181 4182 4183 4184 4185 4186 4187 4188 4189 4190 4191 4192 4193 4194 4195 4196 4197 4198 4199 4200 4501 4502 4503 4504 4505 4506 4507 4508 4509 4510 4511 4512 4513 4514 4515 4516 4517 4518 4519 4520 4521 4522 4523 4524 4525 4526 4527 4528 4529 4530 4531 4532 4533 4534 4535 4536 4537 4538 4539 4540 4541 4542 4543 4544 4545 4546 4547 4548 4549 4550 4551 4552 4553 4554 4555 4556 4557 4558 4559 4560 4861 4862 4863 4864 4865 4866 4867 4868 4869 4870 4871 4872 4873 4874 4875 4876 4877 4878 4879 4880 4881 4882 4883 4884 4885 4886 4887 4888 4889 4890 4891 4892 4893 4894 4895 4896 4897 4898 4899 4900 4901 4902 4903 4904 4905 4906 4907 4908 4909 4910 4911 4912 4913 4914 4915 4916 4917 4918 4919 4920 5221 5222 5223 5224 5225 5226 5227 5228 5229 5230 5231 5232 5233 5234 5235 5236 5237 5238 5239 5240 5241 5242 5243 5244 5245 5246 5247 5248 5249 5250 5251 5252 5253 5254 5255 5256 5257 5258 5259 5260 5261 5262 5263 5264 5265 5266 5267 5268 5269 5270 5271 5272 5273 5274 5275 5276 5277 5278 5279 5280 5581 5582 5583 5584 5585 5586 5587 5588 5589 5590 5591 5592 5593 5594 5595 5596 5597 5598 5599 5600 5601 5602 5603 5604 5605 5606 5607 5608 5609 5610 5611 5612 5613 5614 5615 5616 5617 5618 5619 5620 5621 5622 5623 5624 5625 5626 5627 5628 5629 5630 5631 5632 5633 5634 5635 5636 5637 5638 5639 5640 5941 5942 5943 5944 5945 5946 5947 5948 5949 5950 5951 5952 5953 5954 5955 5956 5957 5958 5959 5960 5961 5962 5963 5964 5965 5966 5967 5968 5969 5970 5971 5972 5973 5974 5975 5976 5977 5978 5979 5980 5981 5982 5983 5984 5985 5986 5987 5988 5989 5990 5991 5992 5993 5994 5995 5996 5997 5998 5999 6000 6301 6302 6303 6304 6305 6306 6307 6308 6309 6310 6311 6312 6313 6314 6315 6316 6317 6318 6319 6320 6321 6322 6323 6324 6325 6326 6327 6328 6329 6330 6331 6332 6333 6334 6335 6336 6337 6338 6339 6340 6341 6342 6343 6344 6345 6346 6347 6348 6349 6350 6351 6352 6353 6354 6355 6356 6357 6358 6359 6360 6661 6662 6663 6664 6665 6666 6667 6668 6669 6670 6671 6672 6673 6674 6675 6676 6677 6678 6679 6680 6681 6682 6683 6684 6685 6686 6687 6688 6689 6690 6691 6692 6693 6694 6695 6696 6697 6698 6699 6700 6701 6702 6703 6704 6705 6706 6707 6708 6709 6710 6711 6712 6713 6714 6715 6716 6717 6718 6719 6720 7021 7022 7023 7024 7025 7026 7027 7028 7029 7030 7031 7032 7033 7034 7035 7036 7037 7038 7039 7040 7041 7042 7043 7044 7045 7046 7047 7048 7049 7050 7051 7052 7053 7054 7055 7056 7057 7058 7059 7060 7061 7062 7063 7064 7065 7066 7067 7068 7069 7070 7071 7072 7073 7074 7075 7076 7077 7078 7079 7080 7381 7382 7383 7384 7385 7386 7387 7388 7389 7390 7391 7392 7393 7394 7395 7396 7397 7398 7399 7400 7401 7402 7403 7404 7405 7406 7407 7408 7409 7410 7411 7412 7413 7414 7415 7416 7417 7418 7419 7420 7421 7422 7423 7424 7425 7426 7427 7428 7429 7430 7431 7432 7433 7434 7435 7436 7437 7438 7439 7440 7741 7742 7743 7744 7745 7746 7747 7748 7749 7750 7751 7752 7753 7754 7755 7756 7757 7758 7759 7760 7761 7762 7763 7764 7765 7766 7767 7768 7769 7770 7771 7772 7773 7774 7775 7776 7777 7778 7779 7780 7781 7782 7783 7784 7785 7786 7787 7788 7789 7790 7791 7792 7793 7794 7795 7796 7797 7798 7799 7800 8101 8102 8103 8104 8105 8106 8107 8108 8109 8110 8111 8112 8113 8114 8115 8116 8117 8118 8119 8120 8121 8122 8123 8124 8125 8126 8127 8128 8129 8130 8131 8132 8133 8134 8135 8136 8137 8138 8139 8140 8141 8142 8143 8144 8145 8146 8147 8148 8149 8150 8151 8152 8153 8154 8155 8156 8157 8158 8159 8160 8461 8462 8463 8464 8465 8466 8467 8468 8469 8470 8471 8472 8473 8474 8475 8476 8477 8478 8479 8480 8481 8482 8483 8484 8485 8486 8487 8488 8489 8490 8491 8492 8493 8494 8495 8496 8497 8498 8499 8500 8501 8502 8503 8504 8505 8506 8507 8508 8509 8510 8511 8512 8513 8514 8515 8516 8517 8518 8519 8520 8821 8822 8823 8824 8825 8826 8827 8828 8829 8830 8831 8832 8833 8834 8835 8836 8837 8838 8839 8840 8841 8842 8843 8844 8845 8846 8847 8848 8849 8850 8851 8852 8853 8854 8855 8856 8857 8858 8859 8860 8861 8862 8863 8864 8865 8866 8867 8868 8869 8870 8871 8872 8873 8874 8875 8876 8877 8878 8879 8880 9181 9182 9183 9184 9185 9186 9187 9188 9189 9190 9191 9192 9193 9194 9195 9196 9197 9198 9199 9200 9201 9202 9203 9204 9205 9206 9207 9208 9209 9210 9211 9212 9213 9214 9215 9216 9217 9218 9219 9220 9221 9222 9223 9224 9225 9226 9227 9228 9229 9230 9231 9232 9233 9234 9235 9236 9237 9238 9239 9240 9541 9542 9543 9544 9545 9546 9547 9548 9549 9550 9551 9552 9553 9554 9555 9556 9557 9558 9559 9560 9561 9562 9563 9564 9565 9566 9567 9568 9569 9570 9571 9572 9573 9574 9575 9576 9577 9578 9579 9580 9581 9582 9583 9584 9585 9586 9587 9588 9589 9590 9591 9592 9593 9594 9595 9596 9597 9598 9599 9600 9901 9902 9903 9904 9905 9906 9907 9908 9909 9910 9911 9912 9913 9914 9915 9916 9917 9918 9919 9920 9921 9922 9923 9924 9925 9926 9927 9928 9929 9930 9931 9932 9933 9934 9935 9936 9937 9938 9939 9940 9941 9942 9943 9944 9945 9946 9947 9948 9949 9950 9951 9952 9953 9954 9955 9956 9957 9958 9959 9960 10261 10262 10263 10264 10265 10266 10267 10268 10269 10270 10271 10272 10273 10274 10275 10276 10277 10278 10279 10280 10281 10282 10283 10284 10285 10286 10287 10288 10289 10290 10291 10292 10293 10294 10295 10296 10297 10298 10299 10300 10301 10302 10303 10304 10305 10306 10307 10308 10309 10310 10311 10312 10313 10314 10315 10316 10317 10318 10319 10320 10621 10622 10623 10624 10625 10626 10627 10628 10629 10630 10631 10632 10633 10634 10635 10636 10637 10638 10639 10640 10641 10642 10643 10644 10645 10646 10647 10648 10649 10650 10651 10652 10653 10654 10655 10656 10657 10658 10659 10660 10661 10662 10663 10664 10665 10666 10667 10668 10669 10670 10671 10672 10673 10674 10675 10676 10677 10678 10679 10680 10981 10982 10983 10984 10985 10986 10987 10988 10989 10990 10991 10992 10993 10994 10995 10996 10997 10998 10999 11000 11001 11002 11003 11004 11005 11006 11007 11008 11009 11010 11011 11012 11013 11014 11015 11016 11017 11018 11019 11020 11021 11022 11023 11024 11025 11026 11027 11028 11029 11030 11031 11032 11033 11034 11035 11036 11037 11038 11039 11040 11341 11342 11343 11344 11345 11346 11347 11348 11349 11350 11351 11352 11353 11354 11355 11356 11357 11358 11359 11360 11361 11362 11363 11364 11365 11366 11367 11368 11369 11370 11371 11372 11373 11374 11375 11376 11377 11378 11379 11380 11381 11382 11383 11384 11385 11386 11387 11388 11389 11390 11391 11392 11393 11394 11395 11396 11397 11398 11399 11400 11701 11702 11703 11704 11705 11706 11707 11708 11709 11710 11711 11712 11713 11714 11715 11716 11717 11718 11719 11720 11721 11722 11723 11724 11725 11726 11727 11728 11729 11730 11731 11732 11733 11734 11735 11736 11737 11738 11739 11740 11741 11742 11743 11744 11745 11746 11747 11748 11749 11750 11751 11752 11753 11754 11755 11756 11757 11758 11759 11760 12061 12062 12063 12064 12065 12066 12067 12068 12069 12070 12071 12072 12073 12074 12075 12076 12077 12078 12079 12080 12081 12082 12083 12084 12085 12086 12087 12088 12089 12090 12091 12092 12093 12094 12095 12096 12097 12098 12099 12100 12101 12102 12103 12104 12105 12106 12107 12108 12109 12110 12111 12112 12113 12114 12115 12116 12117 12118 12119 12120 12421 12422 12423 12424 12425 12426 12427 12428 12429 12430 12431 12432 12433 12434 12435 12436 12437 12438 12439 12440 12441 12442 12443 12444 12445 12446 12447 12448 12449 12450 12451 12452 12453 12454 12455 12456 12457 12458 12459 12460 12461 12462 12463 12464 12465 12466 12467 12468 12469 12470 12471 12472 12473 12474 12475 12476 12477 12478 12479 12480 12781 12782 12783 12784 12785 12786 12787 12788 12789 12790 12791 12792 12793 12794 12795 12796 12797 12798 12799 12800 12801 12802 12803 12804 12805 12806 12807 12808 12809 12810 12811 12812 12813 12814 12815 12816 12817 12818 12819 12820 12821 12822 12823 12824 12825 12826 12827 12828 12829 12830 12831 12832 12833 12834 12835 12836 12837 12838 12839 12840 13141 13142 13143 13144 13145 13146 13147 13148 13149 13150 13151 13152 13153 13154 13155 13156 13157 13158 13159 13160 13161 13162 13163 13164 13165 13166 13167 13168 13169 13170 13171 13172 13173 13174 13175 13176 13177 13178 13179 13180 13181 13182 13183 13184 13185 13186 13187 13188 13189 13190 13191 13192 13193 13194 13195 13196 13197 13198 13199 13200 13501 13502 13503 13504 13505 13506 13507 13508 13509 13510 13511 13512 13513 13514 13515 13516 13517 13518 13519 13520 13521 13522 13523 13524 13525 13526 13527 13528 13529 13530 13531 13532 13533 13534 13535 13536 13537 13538 13539 13540 13541 13542 13543 13544 13545 13546 13547 13548 13549 13550 13551 13552 13553 13554 13555 13556 13557 13558 13559 13560 13861 13862 13863 13864 13865 13866 13867 13868 13869 13870 13871 13872 13873 13874 13875 13876 13877 13878 13879 13880 13881 13882 13883 13884 13885 13886 13887 13888 13889 13890 13891 13892 13893 13894 13895 13896 13897 13898 13899 13900 13901 13902 13903 13904 13905 13906 13907 13908 13909 13910 13911 13912 13913 13914 13915 13916 13917 13918 13919 13920 14221 14222 14223 14224 14225 14226 14227 14228 14229 14230 14231 14232 14233 14234 14235 14236 14237 14238 14239 14240 14241 14242 14243 14244 14245 14246 14247 14248 14249 14250 14251 14252 14253 14254 14255 14256 14257 14258 14259 14260 14261 14262 14263 14264 14265 14266 14267 14268 14269 14270 14271 14272 14273 14274 14275 14276 14277 14278 14279 14280 14581 14582 14583 14584 14585 14586 14587 14588 14589 14590 14591 14592 14593 14594 14595 14596 14597 14598 14599 14600 14601 14602 14603 14604 14605 14606 14607 14608 14609 14610 14611 14612 14613 14614 14615 14616 14617 14618 14619 14620 14621 14622 14623 14624 14625 14626 14627 14628 14629 14630 14631 14632 14633 14634 14635 14636 14637 14638 14639 14640 14941 14942 14943 14944 14945 14946 14947 14948 14949 14950 14951 14952 14953 14954 14955 14956 14957 14958 14959 14960 14961 14962 14963 14964 14965 14966 14967 14968 14969 14970 14971 14972 14973 14974 14975 14976 14977 14978 14979 14980 14981 14982 14983 14984 14985 14986 14987 14988 14989 14990 14991 14992 14993 14994 14995 14996 14997 14998 14999 15000 15301 15302 15303 15304 15305 15306 15307 15308 15309 15310 15311 15312 15313 15314 15315 15316 15317 15318 15319 15320 15321 15322 15323 15324 15325 15326 15327 15328 15329 15330 15331 15332 15333 15334 15335 15336 15337 15338 15339 15340 15341 15342 15343 15344 15345 15346 15347 15348 15349 15350 15351 15352 15353 15354 15355 15356 15357 15358 15359 15360 15661 15662 15663 15664 15665 15666 15667 15668 15669 15670 15671 15672 15673 15674 15675 15676 15677 15678 15679 15680 15681 15682 15683 15684 15685 15686 15687 15688 15689 15690 15691 15692 15693 15694 15695 15696 15697 15698 15699 15700 15701 15702 15703 15704 15705 15706 15707 15708 15709 15710 15711 15712 15713 15714 15715 15716 15717 15718 15719 15720 16021 16022 16023 16024 16025 16026 16027 16028 16029 16030 16031 16032 16033 16034 16035 16036 16037 16038 16039 16040 16041 16042 16043 16044 16045 16046 16047 16048 16049 16050 16051 16052 16053 16054 16055 16056 16057 16058 16059 16060 16061 16062 16063 16064 16065 16066 16067 16068 16069 16070 16071 16072 16073 16074 16075 16076 16077 16078 16079 16080 16381 16382 16383 16384 16385 16386 16387 16388 16389 16390 16391 16392 16393 16394 16395 16396 16397 16398 16399 16400 16401 16402 16403 16404 16405 16406 16407 16408 16409 16410 16411 16412 16413 16414 16415 16416 16417 16418 16419 16420 16421 16422 16423 16424 16425 16426 16427 16428 16429 16430 16431 16432 16433 16434 16435 16436 16437 16438 16439 16440 16741 16742 16743 16744 16745 16746 16747 16748 16749 16750 16751 16752 16753 16754 16755 16756 16757 16758 16759 16760 16761 16762 16763 16764 16765 16766 16767 16768 16769 16770 16771 16772 16773 16774 16775 16776 16777 16778 16779 16780 16781 16782 16783 16784 16785 16786 16787 16788 16789 16790 16791 16792 16793 16794 16795 16796 16797 16798 16799 16800 17101 17102 17103 17104 17105 17106 17107 17108 17109 17110 17111 17112 17113 17114 17115 17116 17117 17118 17119 17120 17121 17122 17123 17124 17125 17126 17127 17128 17129 17130 17131 17132 17133 17134 17135 17136 17137 17138 17139 17140 17141 17142 17143 17144 17145 17146 17147 17148 17149 17150 17151 17152 17153 17154 17155 17156 17157 17158 17159 17160 17461 17462 17463 17464 17465 17466 17467 17468 17469 17470 17471 17472 17473 17474 17475 17476 17477 17478 17479 17480 17481 17482 17483 17484 17485 17486 17487 17488 17489 17490 17491 17492 17493 17494 17495 17496 17497 17498 17499 17500 17501 17502 17503 17504 17505 17506 17507 17508 17509 17510 17511 17512 17513 17514 17515 17516 17517 17518 17519 17520 17821 17822 17823 17824 17825 17826 17827 17828 17829 17830 17831 17832 17833 17834 17835 17836 17837 17838 17839 17840 17841 17842 17843 17844 17845 17846 17847 17848 17849 17850 17851 17852 17853 17854 17855 17856 17857 17858 17859 17860 17861 17862 17863 17864 17865 17866 17867 17868 17869 17870 17871 17872 17873 17874 17875 17876 17877 17878 17879 17880 18181 18182 18183 18184 18185 18186 18187 18188 18189 18190 18191 18192 18193 18194 18195 18196 18197 18198 18199 18200 18201 18202 18203 18204 18205 18206 18207 18208 18209 18210 18211 18212 18213 18214 18215 18216 18217 18218 18219 18220 18221 18222 18223 18224 18225 18226 18227 18228 18229 18230 18231 18232 18233 18234 18235 18236 18237 18238 18239 18240 18541 18542 18543 18544 18545 18546 18547 18548 18549 18550 18551 18552 18553 18554 18555 18556 18557 18558 18559 18560 18561 18562 18563 18564 18565 18566 18567 18568 18569 18570 18571 18572 18573 18574 18575 18576 18577 18578 18579 18580 18581 18582 18583 18584 18585 18586 18587 18588 18589 18590 18591 18592 18593 18594 18595 18596 18597 18598 18599 18600 18901 18902 18903 18904 18905 18906 18907 18908 18909 18910 18911 18912 18913 18914 18915 18916 18917 18918 18919 18920 18921 18922 18923 18924 18925 18926 18927 18928 18929 18930 18931 18932 18933 18934 18935 18936 18937 18938 18939 18940 18941 18942 18943 18944 18945 18946 18947 18948 18949 18950 18951 18952 18953 18954 18955 18956 18957 18958 18959 18960 19261 19262 19263 19264 19265 19266 19267 19268 19269 19270 19271 19272 19273 19274 19275 19276 19277 19278 19279 19280 19281 19282 19283 19284 19285 19286 19287 19288 19289 19290 19291 19292 19293 19294 19295 19296 19297 19298 19299 19300 19301 19302 19303 19304 19305 19306 19307 19308 19309 19310 19311 19312 19313 19314 19315 19316 19317 19318 19319 19320 19621 19622 19623 19624 19625 19626 19627 19628 19629 19630 19631 19632 19633 19634 19635 19636 19637 19638 19639 19640 19641 19642 19643 19644 19645 19646 19647 19648 19649 19650 19651 19652 19653 19654 19655 19656 19657 19658 19659 19660 19661 19662 19663 19664 19665 19666 19667 19668 19669 19670 19671 19672 19673 19674 19675 19676 19677 19678 19679 19680 19981 19982 19983 19984 19985 19986 19987 19988 19989 19990 19991 19992 19993 19994 19995 19996 19997 19998 19999 20000 20001 20002 20003 20004 20005 20006 20007 20008 20009 20010 20011 20012 20013 20014 20015 20016 20017 20018 20019 20020 20021 20022 20023 20024 20025 20026 20027 20028 20029 20030 20031 20032 20033 20034 20035 20036 20037 20038 20039 20040 20341 20342 20343 20344 20345 20346 20347 20348 20349 20350 20351 20352 20353 20354 20355 20356 20357 20358 20359 20360 20361 20362 20363 20364 20365 20366 20367 20368 20369 20370 20371 20372 20373 20374 20375 20376 20377 20378 20379 20380 20381 20382 20383 20384 20385 20386 20387 20388 20389 20390 20391 20392 20393 20394 20395 20396 20397 20398 20399 20400 20701 20702 20703 20704 20705 20706 20707 20708 20709 20710 20711 20712 20713 20714 20715 20716 20717 20718 20719 20720 20721 20722 20723 20724 20725 20726 20727 20728 20729 20730 20731 20732 20733 20734 20735 20736 20737 20738 20739 20740 20741 20742 20743 20744 20745 20746 20747 20748 20749 20750 20751 20752 20753 20754 20755 20756 20757 20758 20759 20760 21061 21062 21063 21064 21065 21066 21067 21068 21069 21070 21071 21072 21073 21074 21075 21076 21077 21078 21079 21080 21081 21082 21083 21084 21085 21086 21087 21088 21089 21090 21091 21092 21093 21094 21095 21096 21097 21098 21099 21100 21101 21102 21103 21104 21105 21106 21107 21108 21109 21110 21111 21112 21113 21114 21115 21116 21117 21118 21119 21120 21421 21422 21423 21424 21425 21426 21427 21428 21429 21430 21431 21432 21433 21434 21435 21436 21437 21438 21439 21440 21441 21442 21443 21444 21445 21446 21447 21448 21449 21450 21451 21452 21453 21454 21455 21456 21457 21458 21459 21460 21461 21462 21463 21464 21465 21466 21467 21468 21469 21470 21471 21472 21473 21474 21475 21476 21477 21478 21479 21480 21781 21782 21783 21784 21785 21786 21787 21788 21789 21790 21791 21792 21793 21794 21795 21796 21797 21798 21799 21800 21801 21802 21803 21804 21805 21806 21807 21808 21809 21810 21811 21812 2181