# vtk DataFile Version 3.0
This file was generated by ESMC 
ASCII
DATASET UNSTRUCTURED_GRID
POINTS 10980 double
-0.0130885 -0.0226699 -0.999657
-0.0218097 -0.0377755 -0.999048
-0.0305243 -0.0528696 -0.998135
-0.0392295 -0.0679476 -0.996917
-0.0479229 -0.0830049 -0.995396
-0.0566016 -0.0980369 -0.993572
-0.0652631 -0.113039 -0.991445
-0.0739047 -0.128007 -0.989016
-0.0825238 -0.142935 -0.986286
-0.0911178 -0.157821 -0.983255
-0.099684 -0.172658 -0.979925
-0.10822 -0.187442 -0.976296
-0.116723 -0.20217 -0.97237
-0.12519 -0.216835 -0.968148
-0.133619 -0.231435 -0.96363
-0.142008 -0.245965 -0.95882
-0.150353 -0.260419 -0.953717
-0.158652 -0.274794 -0.948324
-0.166903 -0.289085 -0.942641
-0.175104 -0.303288 -0.936672
-0.183251 -0.317399 -0.930418
-0.191342 -0.331414 -0.92388
-0.199375 -0.345327 -0.91706
-0.207347 -0.359135 -0.909961
-0.215256 -0.372834 -0.902585
-0.223099 -0.386419 -0.894934
-0.230874 -0.399886 -0.887011
-0.238579 -0.413232 -0.878817
-0.246212 -0.426451 -0.870356
-0.253769 -0.439541 -0.861629
-0.261249 -0.452497 -0.85264
-0.26865 -0.465315 -0.843391
-0.275968 -0.477991 -0.833886
-0.283203 -0.490522 -0.824126
-0.290351 -0.502904 -0.814116
-0.297411 -0.515132 -0.803857
-0.304381 -0.527203 -0.793353
-0.311257 -0.539113 -0.782608
-0.318039 -0.55086 -0.771625
-0.324724 -0.562439 -0.760406
-0.33131 -0.573846 -0.748956
-0.337795 -0.585078 -0.737277
-0.344177 -0.596133 -0.725374
-0.350455 -0.607005 -0.71325
-0.356625 -0.617693 -0.700909
-0.362687 -0.628193 -0.688355
-0.368639 -0.638501 -0.67559
-0.374478 -0.648615 -0.66262
-0.380203 -0.658531 -0.649448
-0.385812 -0.668246 -0.636078
-0.391304 -0.677759 -0.622515
-0.396677 -0.687064 -0.608761
-0.401928 -0.69616 -0.594823
-0.407058 -0.705045 -0.580703
-0.412063 -0.713714 -0.566406
-0.416943 -0.722166 -0.551937
-0.421696 -0.730398 -0.5373
-0.42632 -0.738408 -0.522499
-0.430815 -0.746193 -0.507538
-0.435178 -0.75375 -0.492424
-0.439409 -0.761078 -0.477159
-0.443505 -0.768174 -0.461749
-0.447467 -0.775036 -0.446198
-0.451293 -0.781662 -0.430511
-0.454981 -0.78805 -0.414693
-0.45853 -0.794197 -0.398749
-0.46194 -0.800103 -0.382683
-0.465209 -0.805765 -0.366501
-0.468336 -0.811182 -0.350207
-0.471321 -0.816351 -0.333807
-0.474162 -0.821272 -0.317305
-0.476858 -0.825943 -0.300706
-0.47941 -0.830362 -0.284015
-0.481815 -0.834528 -0.267238
-0.484074 -0.83844 -0.25038
-0.486185 -0.842097 -0.233445
-0.488148 -0.845497 -0.21644
-0.489962 -0.84864 -0.199368
-0.491627 -0.851524 -0.182236
-0.493143 -0.854148 -0.165048
-0.494508 -0.856513 -0.147809
-0.495722 -0.858616 -0.130526
-0.496786 -0.860458 -0.113203
-0.497698 -0.862038 -0.0958458
-0.498459 -0.863356 -0.0784591
-0.499067 -0.86441 -0.0610485
-0.499524 -0.865201 -0.0436194
-0.499829 -0.865729 -0.0261769
-0.499981 -0.865992 -0.00872654
-0.499981 -0.865992 0.00872654
-0.499829 -0.865729 0.0261769
-0.499524 -0.865201 0.0436194
-0.499067 -0.86441 0.0610485
-0.498459 -0.863356 0.0784591
-0.497698 -0.862038 0.0958458
-0.496786 -0.860458 0.113203
-0.495722 -0.858616 0.130526
-0.494508 -0.856513 0.147809
-0.493143 -0.854148 0.165048
-0.491627 -0.851524 0.182236
-0.489962 -0.84864 0.199368
-0.488148 -0.845497 0.21644
-0.486185 -0.842097 0.233445
-0.484074 -0.83844 0.25038
-0.481815 -0.834528 0.267238
-0.47941 -0.830362 0.284015
-0.476858 -0.825943 0.300706
-0.474162 -0.821272 0.317305
-0.471321 -0.816351 0.333807
-0.468336 -0.811182 0.350207
-0.465209 -0.805765 0.366501
-0.46194 -0.800103 0.382683
-0.45853 -0.794197 0.398749
-0.454981 -0.78805 0.414693
-0.451293 -0.781662 0.430511
-0.447467 -0.775036 0.446198
-0.443505 -0.768174 0.461749
-0.439409 -0.761078 0.477159
-0.435178 -0.75375 0.492424
-0.430815 -0.746193 0.507538
-0.42632 -0.738408 0.522499
-0.421696 -0.730398 0.5373
-0.416943 -0.722166 0.551937
-0.412063 -0.713714 0.566406
-0.407058 -0.705045 0.580703
-0.401928 -0.69616 0.594823
-0.396677 -0.687064 0.608761
-0.391304 -0.677759 0.622515
-0.385812 -0.668246 0.636078
-0.380203 -0.658531 0.649448
-0.374478 -0.648615 0.66262
-0.368639 -0.638501 0.67559
-0.362687 -0.628193 0.688355
-0.356625 -0.617693 0.700909
-0.350455 -0.607005 0.71325
-0.344177 -0.596133 0.725374
-0.337795 -0.585078 0.737277
-0.33131 -0.573846 0.748956
-0.324724 -0.562439 0.760406
-0.318039 -0.55086 0.771625
-0.311257 -0.539113 0.782608
-0.304381 -0.527203 0.793353
-0.297411 -0.515132 0.803857
-0.290351 -0.502904 0.814116
-0.283203 -0.490522 0.824126
-0.275968 -0.477991 0.833886
-0.26865 -0.465315 0.843391
-0.261249 -0.452497 0.85264
-0.253769 -0.439541 0.861629
-0.246212 -0.426451 0.870356
-0.238579 -0.413232 0.878817
-0.230874 -0.399886 0.887011
-0.223099 -0.386419 0.894934
-0.215256 -0.372834 0.902585
-0.207347 -0.359135 0.909961
-0.199375 -0.345327 0.91706
-0.191342 -0.331414 0.92388
-0.183251 -0.317399 0.930418
-0.175104 -0.303288 0.936672
-0.166903 -0.289085 0.942641
-0.158652 -0.274794 0.948324
-0.150353 -0.260419 0.953717
-0.142008 -0.245965 0.95882
-0.133619 -0.231435 0.96363
-0.12519 -0.216835 0.968148
-0.116723 -0.20217 0.97237
-0.10822 -0.187442 0.976296
-0.099684 -0.172658 0.979925
-0.0911178 -0.157821 0.983255
-0.0825238 -0.142935 0.986286
-0.0739047 -0.128007 0.989016
-0.0652631 -0.113039 0.991445
-0.0566016 -0.0980369 0.993572
-0.0479229 -0.0830049 0.995396
-0.0392295 -0.0679476 0.996917
-0.0305243 -0.0528696 0.998135
-0.0218097 -0.0377755 0.999048
-0.0130885 -0.0226699 0.999657
-0.0126908 -0.0228949 -0.999657
-0.0122893 -0.0231129 -0.999657
-0.0118841 -0.0233238 -0.999657
-0.0114752 -0.0235277 -0.999657
-0.0110629 -0.0237244 -0.999657
-0.0106471 -0.0239138 -0.999657
-0.0102281 -0.024096 -0.999657
-0.00980606 -0.0242708 -0.999657
-0.00938098 -0.0244383 -0.999657
-0.00895304 -0.0245983 -0.999657
-0.00852238 -0.0247508 -0.999657
-0.00808912 -0.0248958 -0.999657
-0.0076534 -0.0250331 -0.999657
-0.00721534 -0.0251629 -0.999657
-0.00677509 -0.025285 -0.999657
-0.00633278 -0.0253994 -0.999657
-0.00588853 -0.025506 -0.999657
-0.00544249 -0.0256049 -0.999657
-0.0049948 -0.025696 -0.999657
-0.00454558 -0.0257793 -0.999657
-0.00409498 -0.0258547 -0.999657
-0.00364313 -0.0259222 -0.999657
-0.00319017 -0.0259818 -0.999657
-0.00273624 -0.0260335 -0.999657
-0.00228147 -0.0260773 -0.999657
-0.00182601 -0.0261132 -0.999657
-0.00137 -0.0261411 -0.999657
-0.000913562 -0.026161 -0.999657
-0.000456851 -0.026173 -0.999657
-4.80863e-18 -0.0261769 -0.999657
0.000456851 -0.026173 -0.999657
0.000913562 -0.026161 -0.999657
0.00137 -0.0261411 -0.999657
0.00182601 -0.0261132 -0.999657
0.00228147 -0.0260773 -0.999657
0.00273624 -0.0260335 -0.999657
0.00319017 -0.0259818 -0.999657
0.00364313 -0.0259222 -0.999657
0.00409498 -0.0258547 -0.999657
0.00454558 -0.0257793 -0.999657
0.0049948 -0.025696 -0.999657
0.00544249 -0.0256049 -0.999657
0.00588853 -0.025506 -0.999657
0.00633278 -0.0253994 -0.999657
0.00677509 -0.025285 -0.999657
0.00721534 -0.0251629 -0.999657
0.0076534 -0.0250331 -0.999657
0.00808912 -0.0248958 -0.999657
0.00852238 -0.0247508 -0.999657
0.00895304 -0.0245983 -0.999657
0.00938098 -0.0244383 -0.999657
0.00980606 -0.0242708 -0.999657
0.0102281 -0.024096 -0.999657
0.0106471 -0.0239138 -0.999657
0.0110629 -0.0237244 -0.999657
0.0114752 -0.0235277 -0.999657
0.0118841 -0.0233238 -0.999657
0.0122893 -0.0231129 -0.999657
0.0126908 -0.0228949 -0.999657
-0.0211471 -0.0381504 -0.999048
-0.0204781 -0.0385136 -0.999048
-0.0198028 -0.0388652 -0.999048
-0.0191215 -0.0392048 -0.999048
-0.0184343 -0.0395326 -0.999048
-0.0177416 -0.0398483 -0.999048
-0.0170435 -0.0401519 -0.999048
-0.0163401 -0.0404432 -0.999048
-0.0156318 -0.0407222 -0.999048
-0.0149187 -0.0409888 -0.999048
-0.0142011 -0.0412429 -0.999048
-0.0134791 -0.0414845 -0.999048
-0.0127531 -0.0417134 -0.999048
-0.0120231 -0.0419296 -0.999048
-0.0112895 -0.0421331 -0.999048
-0.0105525 -0.0423237 -0.999048
-0.00981223 -0.0425014 -0.999048
-0.00906898 -0.0426662 -0.999048
-0.00832297 -0.042818 -0.999048
-0.00757443 -0.0429567 -0.999048
-0.00682358 -0.0430824 -0.999048
-0.00607065 -0.0431949 -0.999048
-0.00531587 -0.0432943 -0.999048
-0.00455947 -0.0433804 -0.999048
-0.00380168 -0.0434534 -0.999048
-0.00304273 -0.0435131 -0.999048
-0.00228286 -0.0435596 -0.999048
-0.00152229 -0.0435928 -0.999048
-0.000761263 -0.0436127 -0.999048
-8.01275e-18 -0.0436194 -0.999048
0.000761263 -0.0436127 -0.999048
0.00152229 -0.0435928 -0.999048
0.00228286 -0.0435596 -0.999048
0.00304273 -0.0435131 -0.999048
0.00380168 -0.0434534 -0.999048
0.00455947 -0.0433804 -0.999048
0.00531587 -0.0432943 -0.999048
0.00607065 -0.0431949 -0.999048
0.00682358 -0.0430824 -0.999048
0.00757443 -0.0429567 -0.999048
0.00832297 -0.042818 -0.999048
0.00906898 -0.0426662 -0.999048
0.00981223 -0.0425014 -0.999048
0.0105525 -0.0423237 -0.999048
0.0112895 -0.0421331 -0.999048
0.0120231 -0.0419296 -0.999048
0.0127531 -0.0417134 -0.999048
0.0134791 -0.0414845 -0.999048
0.0142011 -0.0412429 -0.999048
0.0149187 -0.0409888 -0.999048
0.0156318 -0.0407222 -0.999048
0.0163401 -0.0404432 -0.999048
0.0170435 -0.0401519 -0.999048
0.0177416 -0.0398483 -0.999048
0.0184343 -0.0395326 -0.999048
0.0191215 -0.0392048 -0.999048
0.0198028 -0.0388652 -0.999048
0.0204781 -0.0385136 -0.999048
0.0211471 -0.0381504 -0.999048
-0.0295969 -0.0533943 -0.998135
-0.0286606 -0.0539027 -0.998135
-0.0277155 -0.0543946 -0.998135
-0.0267619 -0.0548701 -0.998135
-0.0258002 -0.0553288 -0.998135
-0.0248307 -0.0557706 -0.998135
-0.0238536 -0.0561955 -0.998135
-0.0228692 -0.0566032 -0.998135
-0.0218778 -0.0569937 -0.998135
-0.0208798 -0.0573669 -0.998135
-0.0198755 -0.0577225 -0.998135
-0.018865 -0.0580606 -0.998135
-0.0178489 -0.058381 -0.998135
-0.0168273 -0.0586836 -0.998135
-0.0158005 -0.0589684 -0.998135
-0.014769 -0.0592351 -0.998135
-0.0137329 -0.0594839 -0.998135
-0.0126927 -0.0597145 -0.998135
-0.0116486 -0.0599269 -0.998135
-0.010601 -0.0601211 -0.998135
-0.0095501 -0.0602969 -0.998135
-0.00849631 -0.0604544 -0.998135
-0.00743995 -0.0605935 -0.998135
-0.00638131 -0.0607141 -0.998135
-0.00532073 -0.0608162 -0.998135
-0.00425853 -0.0608998 -0.998135
-0.00319503 -0.0609649 -0.998135
[...]
CELL_DATA 10740
SCALARS _ELEM_NUM double 1
LOOKUP_TABLE default
241 242 243 244 245 246 247 248 249 250 251 252 253 254 255 256 257 258 259 260 261 262 263 264 265 266 267 268 269 270 271 272 273 274 275 276 277 278 279 280 281 282 283 284 285 286 287 288 289 290 291 292 293 294 295 296 297 298 299 300 601 602 603 604 605 606 607 608 609 610 611 612 613 614 615 616 617 618 619 620 621 622 623 624 625 626 627 628 629 630 631 632 633 634 635 636 637 638 639 640 641 642 643 644 645 646 647 648 649 650 651 652 653 654 655 656 657 658 659 660 961 962 963 964 965 966 967 968 969 970 971 972 973 974 975 976 977 978 979 980 981 982 983 984 985 986 987 988 989 990 991 992 993 994 995 996 997 998 999 1000 1001 1002 1003 1004 1005 1006 1007 1008 1009 1010 1011 1012 1013 1014 1015 1016 1017 1018 1019 1020 1321 1322 1323 1324 1325 1326 1327 1328 1329 1330 1331 1332 1333 1334 1335 1336 1337 1338 1339 1340 1341 1342 1343 1344 1345 1346 1347 1348 1349 1350 1351 1352 1353 1354 1355 1356 1357 1358 1359 1360 1361 1362 1363 1364 1365 1366 1367 1368 1369 1370 1371 1372 1373 1374 1375 1376 1377 1378 1379 1380 1681 1682 1683 1684 1685 1686 1687 1688 1689 1690 1691 1692 1693 1694 1695 1696 1697 1698 1699 1700 1701 1702 1703 1704 1705 1706 1707 1708 1709 1710 1711 1712 1713 1714 1715 1716 1717 1718 1719 1720 1721 1722 1723 1724 1725 1726 1727 1728 1729 1730 1731 1732 1733 1734 1735 1736 1737 1738 1739 1740 2041 2042 2043 2044 2045 2046 2047 2048 2049 2050 2051 2052 2053 2054 2055 2056 2057 2058 2059 2060 2061 2062 2063 2064 2065 2066 2067 2068 2069 2070 2071 2072 2073 2074 2075 2076 2077 2078 2079 2080 2081 2082 2083 2084 2085 2086 2087 2088 2089 2090 2091 2092 2093 2094 2095 2096 2097 2098 2099 2100 2401 2402 2403 2404 2405 2406 2407 2408 2409 2410 2411 2412 2413 2414 2415 2416 2417 2418 2419 2420 2421 2422 2423 2424 2425 2426 2427 2428 2429 2430 2431 2432 2433 2434 2435 2436 2437 2438 2439 2440 2441 2442 2443 2444 2445 2446 2447 2448 2449 2450 2451 2452 2453 2454 2455 2456 2457 2458 2459 2460 2761 2762 2763 2764 2765 2766 2767 2768 2769 2770 2771 2772 2773 2774 2775 2776 2777 2778 2779 2780 2781 2782 2783 2784 2785 2786 2787 2788 2789 2790 2791 2792 2793 2794 2795 2796 2797 2798 2799 2800 2801 2802 2803 2804 2805 2806 2807 2808 2809 2810 2811 2812 2813 2814 2815 2816 2817 2818 2819 2820 3121 3122 3123 3124 3125 3126 3127 3128 3129 3130 3131 3132 3133 3134 3135 3136 3137 3138 3139 3140 3141 3142 3143 3144 3145 3146 3147 3148 3149 3150 3151 3152 3153 3154 3155 3156 3157 3158 3159 3160 3161 3162 3163 3164 3165 3166 3167 3168 3169 3170 3171 3172 3173 3174 3175 3176 3177 3178 3179 3180 3481 3482 3483 3484 3485 3486 3487 3488 3489 3490 3491 3492 3493 3494 3495 3496 3497 3498 3499 3500 3501 3502 3503 3504 3505 3506 3507 3508 3509 3510 3511 3512 3513 3514 3515 3516 3517 3518 3519 3520 3521 3522 3523 3524 3525 3526 3527 3528 3529 3530 3531 3532 3533 3534 3535 3536 3537 3538 3539 3540 3841 3842 3843 3844 3845 3846 3847 3848 3849 3850 3851 3852 3853 3854 3855 3856 3857 3858 3859 3860 3861 3862 3863 3864 3865 3866 3867 3868 3869 3870 3871 3872 3873 3874 3875 3876 3877 3878 3879 3880 3881 3882 3883 3884 3885 3886 3887 3888 3889 3890 3891 3892 3893 3894 3895 3896 3897 3898 3899 3900 4201 4202 4203 4204 4205 4206 4207 4208 4209 4210 4211 4212 4213 4214 4215 4216 4217 4218 4219 4220 4221 4222 4223 4224 4225 4226 4227 4228 4229 4230 4231 4232 4233 4234 4235 4236 4237 4238 4239 4240 4241 4242 4243 4244 4245 4246 4247 4248 4249 4250 4251 4252 4253 4254 4255 4256 4257 4258 4259 4260 4561 4562 4563 4564 4565 4566 4567 4568 4569 4570 4571 4572 4573 4574 4575 4576 4577 4578 4579 4580 4581 4582 4583 4584 4585 4586 4587 4588 4589 4590 4591 4592 4593 4594 4595 4596 4597 4598 4599 4600 4601 4602 4603 4604 4605 4606 4607 4608 4609 4610 4611 4612 4613 4614 4615 4616 4617 4618 4619 4620 4921 4922 4923 4924 4925 4926 4927 4928 4929 4930 4931 4932 4933 4934 4935 4936 4937 4938 4939 4940 4941 4942 4943 4944 4945 4946 4947 4948 4949 4950 4951 4952 4953 4954 4955 4956 4957 4958 4959 4960 4961 4962 4963 4964 4965 4966 4967 4968 4969 4970 4971 4972 4973 4974 4975 4976 4977 4978 4979 4980 5281 5282 5283 5284 5285 5286 5287 5288 5289 5290 5291 5292 5293 5294 5295 5296 5297 5298 5299 5300 5301 5302 5303 5304 5305 5306 5307 5308 5309 5310 5311 5312 5313 5314 5315 5316 5317 5318 5319 5320 5321 5322 5323 5324 5325 5326 5327 5328 5329 5330 5331 5332 5333 5334 5335 5336 5337 5338 5339 5340 5641 5642 5643 5644 5645 5646 5647 5648 5649 5650 5651 5652 5653 5654 5655 5656 5657 5658 5659 5660 5661 5662 5663 5664 5665 5666 5667 5668 5669 5670 5671 5672 5673 5674 5675 5676 5677 5678 5679 5680 5681 5682 5683 5684 5685 5686 5687 5688 5689 5690 5691 5692 5693 5694 5695 5696 5697 5698 5699 5700 6001 6002 6003 6004 6005 6006 6007 6008 6009 6010 6011 6012 6013 6014 6015 6016 6017 6018 6019 6020 6021 6022 6023 6024 6025 6026 6027 6028 6029 6030 6031 6032 6033 6034 6035 6036 6037 6038 6039 6040 6041 6042 6043 6044 6045 6046 6047 6048 6049 6050 6051 6052 6053 6054 6055 6056 6057 6058 6059 6060 6361 6362 6363 6364 6365 6366 6367 6368 6369 6370 6371 6372 6373 6374 6375 6376 6377 6378 6379 6380 6381 6382 6383 6384 6385 6386 6387 6388 6389 6390 6391 6392 6393 6394 6395 6396 6397 6398 6399 6400 6401 6402 6403 6404 6405 6406 6407 6408 6409 6410 6411 6412 6413 6414 6415 6416 6417 6418 6419 6420 6721 6722 6723 6724 6725 6726 6727 6728 6729 6730 6731 6732 6733 6734 6735 6736 6737 6738 6739 6740 6741 6742 6743 6744 6745 6746 6747 6748 6749 6750 6751 6752 6753 6754 6755 6756 6757 6758 6759 6760 6761 6762 6763 6764 6765 6766 6767 6768 6769 6770 6771 6772 6773 6774 6775 6776 6777 6778 6779 6780 7081 7082 7083 7084 7085 7086 7087 7088 7089 7090 7091 7092 7093 7094 7095 7096 7097 7098 7099 7100 7101 7102 7103 7104 7105 7106 7107 7108 7109 7110 7111 7112 7113 7114 7115 7116 7117 7118 7119 7120 7121 7122 7123 7124 7125 7126 7127 7128 7129 7130 7131 7132 7133 7134 7135 7136 7137 7138 7139 7140 7441 7442 7443 7444 7445 7446 7447 7448 7449 7450 7451 7452 7453 7454 7455 7456 7457 7458 7459 7460 7461 7462 7463 7464 7465 7466 7467 7468 7469 7470 7471 7472 7473 7474 7475 7476 7477 7478 7479 7480 7481 7482 7483 7484 7485 7486 7487 7488 7489 7490 7491 7492 7493 7494 7495 7496 7497 7498 7499 7500 7801 7802 7803 7804 7805 7806 7807 7808 7809 7810 7811 7812 7813 7814 7815 7816 7817 7818 7819 7820 7821 7822 7823 7824 7825 7826 7827 7828 7829 7830 7831 7832 7833 7834 7835 7836 7837 7838 7839 7840 7841 7842 7843 7844 7845 7846 7847 7848 7849 7850 7851 7852 7853 7854 7855 7856 7857 7858 7859 7860 8161 8162 8163 8164 8165 8166 8167 8168 8169 8170 8171 8172 8173 8174 8175 8176 8177 8178 8179 8180 8181 8182 8183 8184 8185 8186 8187 8188 8189 8190 8191 8192 8193 8194 8195 8196 8197 8198 8199 8200 8201 8202 8203 8204 8205 8206 8207 8208 8209 8210 8211 8212 8213 8214 8215 8216 8217 8218 8219 8220 8521 8522 8523 8524 8525 8526 8527 8528 8529 8530 8531 8532 8533 8534 8535 8536 8537 8538 8539 8540 8541 8542 8543 8544 8545 8546 8547 8548 8549 8550 8551 8552 8553 8554 8555 8556 8557 8558 8559 8560 8561 8562 8563 8564 8565 8566 8567 8568 8569 8570 8571 8572 8573 8574 8575 8576 8577 8578 8579 8580 8881 8882 8883 8884 8885 8886 8887 8888 8889 8890 8891 8892 8893 8894 8895 8896 8897 8898 8899 8900 8901 8902 8903 8904 8905 8906 8907 8908 8909 8910 8911 8912 8913 8914 8915 8916 8917 8918 8919 8920 8921 8922 8923 8924 8925 8926 8927 8928 8929 8930 8931 8932 8933 8934 8935 8936 8937 8938 8939 8940 9241 9242 9243 9244 9245 9246 9247 9248 9249 9250 9251 9252 9253 9254 9255 9256 9257 9258 9259 9260 9261 9262 9263 9264 9265 9266 9267 9268 9269 9270 9271 9272 9273 9274 9275 9276 9277 9278 9279 9280 9281 9282 9283 9284 9285 9286 9287 9288 9289 9290 9291 9292 9293 9294 9295 9296 9297 9298 9299 9300 9601 9602 9603 9604 9605 9606 9607 9608 9609 9610 9611 9612 9613 9614 9615 9616 9617 9618 9619 9620 9621 9622 9623 9624 9625 9626 9627 9628 9629 9630 9631 9632 9633 9634 9635 9636 9637 9638 9639 9640 9641 9642 9643 9644 9645 9646 9647 9648 9649 9650 9651 9652 9653 9654 9655 9656 9657 9658 9659 9660 9961 9962 9963 9964 9965 9966 9967 9968 9969 9970 9971 9972 9973 9974 9975 9976 9977 9978 9979 9980 9981 9982 9983 9984 9985 9986 9987 9988 9989 9990 9991 9992 9993 9994 9995 9996 9997 9998 9999 10000 10001 10002 10003 10004 10005 10006 10007 10008 10009 10010 10011 10012 10013 10014 10015 10016 10017 10018 10019 10020 10321 10322 10323 10324 10325 10326 10327 10328 10329 10330 10331 10332 10333 10334 10335 10336 10337 10338 10339 10340 10341 10342 10343 10344 10345 10346 10347 10348 10349 10350 10351 10352 10353 10354 10355 10356 10357 10358 10359 10360 10361 10362 10363 10364 10365 10366 10367 10368 10369 10370 10371 10372 10373 10374 10375 10376 10377 10378 10379 10380 10681 10682 10683 10684 10685 10686 10687 10688 10689 10690 10691 10692 10693 10694 10695 10696 10697 10698 10699 10700 10701 10702 10703 10704 10705 10706 10707 10708 10709 10710 10711 10712 10713 10714 10715 10716 10717 10718 10719 10720 10721 10722 10723 10724 10725 10726 10727 10728 10729 10730 10731 10732 10733 10734 10735 10736 10737 10738 10739 10740 11041 11042 11043 11044 11045 11046 11047 11048 11049 11050 11051 11052 11053 11054 11055 11056 11057 11058 11059 11060 11061 11062 11063 11064 11065 11066 11067 11068 11069 11070 11071 11072 11073 11074 11075 11076 11077 11078 11079 11080 11081 11082 11083 11084 11085 11086 11087 11088 11089 11090 11091 11092 11093 11094 11095 11096 11097 11098 11099 11100 11401 11402 11403 11404 11405 11406 11407 11408 11409 11410 11411 11412 11413 11414 11415 11416 11417 11418 11419 11420 11421 11422 11423 11424 11425 11426 11427 11428 11429 11430 11431 11432 11433 11434 11435 11436 11437 11438 11439 11440 11441 11442 11443 11444 11445 11446 11447 11448 11449 11450 11451 11452 11453 11454 11455 11456 11457 11458 11459 11460 11761 11762 11763 11764 11765 11766 11767 11768 11769 11770 11771 11772 11773 11774 11775 11776 11777 11778 11779 11780 11781 11782 11783 11784 11785 11786 11787 11788 11789 11790 11791 11792 11793 11794 11795 11796 11797 11798 11799 11800 11801 11802 11803 11804 11805 11806 11807 11808 11809 11810 11811 11812 11813 11814 11815 11816 11817 11818 11819 11820 12121 12122 12123 12124 12125 12126 12127 12128 12129 12130 12131 12132 12133 12134 12135 12136 12137 12138 12139 12140 12141 12142 12143 12144 12145 12146 12147 12148 12149 12150 12151 12152 12153 12154 12155 12156 12157 12158 12159 12160 12161 12162 12163 12164 12165 12166 12167 12168 12169 12170 12171 12172 12173 12174 12175 12176 12177 12178 12179 12180 12481 12482 12483 12484 12485 12486 12487 12488 12489 12490 12491 12492 12493 12494 12495 12496 12497 12498 12499 12500 12501 12502 12503 12504 12505 12506 12507 12508 12509 12510 12511 12512 12513 12514 12515 12516 12517 12518 12519 12520 12521 12522 12523 12524 12525 12526 12527 12528 12529 12530 12531 12532 12533 12534 12535 12536 12537 12538 12539 12540 12841 12842 12843 12844 12845 12846 12847 12848 12849 12850 12851 12852 12853 12854 12855 12856 12857 12858 12859 12860 12861 12862 12863 12864 12865 12866 12867 12868 12869 12870 12871 12872 12873 12874 12875 12876 12877 12878 12879 12880 12881 12882 12883 12884 12885 12886 12887 12888 12889 12890 12891 12892 12893 12894 12895 12896 12897 12898 12899 12900 13201 13202 13203 13204 13205 13206 13207 13208 13209 13210 13211 13212 13213 13214 13215 13216 13217 13218 13219 13220 13221 13222 13223 13224 13225 13226 13227 13228 13229 13230 13231 13232 13233 13234 13235 13236 13237 13238 13239 13240 13241 13242 13243 13244 13245 13246 13247 13248 13249 13250 13251 13252 13253 13254 13255 13256 13257 13258 13259 13260 13561 13562 13563 13564 13565 13566 13567 13568 13569 13570 13571 13572 13573 13574 13575 13576 13577 13578 13579 13580 13581 13582 13583 13584 13585 13586 13587 13588 13589 13590 13591 13592 13593 13594 13595 13596 13597 13598 13599 13600 13601 13602 13603 13604 13605 13606 13607 13608 13609 13610 13611 13612 13613 13614 13615 13616 13617 13618 13619 13620 13921 13922 13923 13924 13925 13926 13927 13928 13929 13930 13931 13932 13933 13934 13935 13936 13937 13938 13939 13940 13941 13942 13943 13944 13945 13946 13947 13948 13949 13950 13951 13952 13953 13954 13955 13956 13957 13958 13959 13960 13961 13962 13963 13964 13965 13966 13967 13968 13969 13970 13971 13972 13973 13974 13975 13976 13977 13978 13979 13980 14281 14282 14283 14284 14285 14286 14287 14288 14289 14290 14291 14292 14293 14294 14295 14296 14297 14298 14299 14300 14301 14302 14303 14304 14305 14306 14307 14308 14309 14310 14311 14312 14313 14314 14315 14316 14317 14318 14319 14320 14321 14322 14323 14324 14325 14326 14327 14328 14329 14330 14331 14332 14333 14334 14335 14336 14337 14338 14339 14340 14641 14642 14643 14644 14645 14646 14647 14648 14649 14650 14651 14652 14653 14654 14655 14656 14657 14658 14659 14660 14661 14662 14663 14664 14665 14666 14667 14668 14669 14670 14671 14672 14673 14674 14675 14676 14677 14678 14679 14680 14681 14682 14683 14684 14685 14686 14687 14688 14689 14690 14691 14692 14693 14694 14695 14696 14697 14698 14699 14700 15001 15002 15003 15004 15005 15006 15007 15008 15009 15010 15011 15012 15013 15014 15015 15016 15017 15018 15019 15020 15021 15022 15023 15024 15025 15026 15027 15028 15029 15030 15031 15032 15033 15034 15035 15036 15037 15038 15039 15040 15041 15042 15043 15044 15045 15046 15047 15048 15049 15050 15051 15052 15053 15054 15055 15056 15057 15058 15059 15060 15361 15362 15363 15364 15365 15366 15367 15368 15369 15370 15371 15372 15373 15374 15375 15376 15377 15378 15379 15380 15381 15382 15383 15384 15385 15386 15387 15388 15389 15390 15391 15392 15393 15394 15395 15396 15397 15398 15399 15400 15401 15402 15403 15404 15405 15406 15407 15408 15409 15410 15411 15412 15413 15414 15415 15416 15417 15418 15419 15420 15721 15722 15723 15724 15725 15726 15727 15728 15729 15730 15731 15732 15733 15734 15735 15736 15737 15738 15739 15740 15741 15742 15743 15744 15745 15746 15747 15748 15749 15750 15751 15752 15753 15754 15755 15756 15757 15758 15759 15760 15761 15762 15763 15764 15765 15766 15767 15768 15769 15770 15771 15772 15773 15774 15775 15776 15777 15778 15779 15780 16081 16082 16083 16084 16085 16086 16087 16088 16089 16090 16091 16092 16093 16094 16095 16096 16097 16098 16099 16100 16101 16102 16103 16104 16105 16106 16107 16108 16109 16110 16111 16112 16113 16114 16115 16116 16117 16118 16119 16120 16121 16122 16123 16124 16125 16126 16127 16128 16129 16130 16131 16132 16133 16134 16135 16136 16137 16138 16139 16140 16441 16442 16443 16444 16445 16446 16447 16448 16449 16450 16451 16452 16453 16454 16455 16456 16457 16458 16459 16460 16461 16462 16463 16464 16465 16466 16467 16468 16469 16470 16471 16472 16473 16474 16475 16476 16477 16478 16479 16480 16481 16482 16483 16484 16485 16486 16487 16488 16489 16490 16491 16492 16493 16494 16495 16496 16497 16498 16499 16500 16801 16802 16803 16804 16805 16806 16807 16808 16809 16810 16811 16812 16813 16814 16815 16816 16817 16818 16819 16820 16821 16822 16823 16824 16825 16826 16827 16828 16829 16830 16831 16832 16833 16834 16835 16836 16837 16838 16839 16840 16841 16842 16843 16844 16845 16846 16847 16848 16849 16850 16851 16852 16853 16854 16855 16856 16857 16858 16859 16860 17161 17162 17163 17164 17165 17166 17167 17168 17169 17170 17171 17172 17173 17174 17175 17176 17177 17178 17179 17180 17181 17182 17183 17184 17185 17186 17187 17188 17189 17190 17191 17192 17193 17194 17195 17196 17197 17198 17199 17200 17201 17202 17203 17204 17205 17206 17207 17208 17209 17210 17211 17212 17213 17214 17215 17216 17217 17218 17219 17220 17521 17522 17523 17524 17525 17526 17527 17528 17529 17530 17531 17532 17533 17534 17535 17536 17537 17538 17539 17540 17541 17542 17543 17544 17545 17546 17547 17548 17549 17550 17551 17552 17553 17554 17555 17556 17557 17558 17559 17560 17561 17562 17563 17564 17565 17566 17567 17568 17569 17570 17571 17572 17573 17574 17575 17576 17577 17578 17579 17580 17881 17882 17883 17884 17885 17886 17887 17888 17889 17890 17891 17892 17893 17894 17895 17896 17897 17898 17899 17900 17901 17902 17903 17904 17905 17906 17907 17908 17909 17910 17911 17912 17913 17914 17915 17916 17917 17918 17919 17920 17921 17922 17923 17924 17925 17926 17927 17928 17929 17930 17931 17932 17933 17934 17935 17936 17937 17938 17939 17940 18241 18242 18243 18244 18245 18246 18247 18248 18249 18250 18251 18252 18253 18254 18255 18256 18257 18258 18259 18260 18261 18262 18263 18264 18265 18266 18267 18268 18269 18270 18271 18272 18273 18274 18275 18276 18277 18278 18279 18280 18281 18282 18283 18284 18285 18286 18287 18288 18289 18290 18291 18292 18293 18294 18295 18296 18297 18298 18299 18300 18601 18602 18603 18604 18605 18606 18607 18608 18609 18610 18611 18612 18613 18614 18615 18616 18617 18618 18619 18620 18621 18622 18623 18624 18625 18626 18627 18628 18629 18630 18631 18632 18633 18634 18635 18636 18637 18638 18639 18640 18641 18642 18643 18644 18645 18646 18647 18648 18649 18650 18651 18652 18653 18654 18655 18656 18657 18658 18659 18660 18961 18962 18963 18964 18965 18966 18967 18968 18969 18970 18971 18972 18973 18974 18975 18976 18977 18978 18979 18980 18981 18982 18983 18984 18985 18986 18987 18988 18989 18990 18991 18992 18993 18994 18995 18996 18997 18998 18999 19000 19001 19002 19003 19004 19005 19006 19007 19008 19009 19010 19011 19012 19013 19014 19015 19016 19017 19018 19019 19020 19321 19322 19323 19324 19325 19326 19327 19328 19329 19330 19331 19332 19333 19334 19335 19336 19337 19338 19339 19340 19341 19342 19343 19344 19345 19346 19347 19348 19349 19350 19351 19352 19353 19354 19355 19356 19357 19358 19359 19360 19361 19362 19363 19364 19365 19366 19367 19368 19369 19370 19371 19372 19373 19374 19375 19376 19377 19378 19379 19380 19681 19682 19683 19684 19685 19686 19687 19688 19689 19690 19691 19692 19693 19694 19695 19696 19697 19698 19699 19700 19701 19702 19703 19704 19705 19706 19707 19708 19709 19710 19711 19712 19713 19714 19715 19716 19717 19718 19719 19720 19721 19722 19723 19724 19725 19726 19727 19728 19729 19730 19731 19732 19733 19734 19735 19736 19737 19738 19739 19740 20041 20042 20043 20044 20045 20046 20047 20048 20049 20050 20051 20052 20053 20054 20055 20056 20057 20058 20059 20060 20061 20062 20063 20064 20065 20066 20067 20068 20069 20070 20071 20072 20073 20074 20075 20076 20077 20078 20079 20080 20081 20082 20083 20084 20085 20086 20087 20088 20089 20090 20091 20092 20093 20094 20095 20096 20097 20098 20099 20100 20401 20402 20403 20404 20405 20406 20407 20408 20409 20410 20411 20412 20413 20414 20415 20416 20417 20418 20419 20420 20421 20422 20423 20424 20425 20426 20427 20428 20429 20430 20431 20432 20433 20434 20435 20436 20437 20438 20439 20440 20441 20442 20443 20444 20445 20446 20447 20448 20449 20450 20451 20452 20453 20454 20455 20456 20457 20458 20459 20460 20761 20762 20763 20764 20765 20766 20767 20768 20769 20770 20771 20772 20773 20774 20775 20776 20777 20778 20779 20780 20781 20782 20783 20784 20785 20786 20787 20788 20789 20790 20791 20792 20793 20794 20795 20796 20797 20798 20799 20800 20801 20802 20803 20804 20805 20806 20807 20808 20809 20810 20811 20812 20813 20814 20815 20816 20817 20818 20819 20820 21121 21122 21123 21124 21125 21126 21127 21128 21129 21130 21131 21132 21133 21134 21135 21136 21137 21138 21139 21140 21141 21142 21143 21144 21145 21146 21147 21148 21149 21150 21151 21152 21153 21154 21155 21156 21157 21158 21159 21160 21161 21162 21163 21164 21165 21166 21167 21168 21169 21170 21171 21172 21173 21174 21175 21176 21177 21178 21179 21180 21481 21482 21483 21484 21485 21486 21487 21488 21489 21490 21491 21492 21493 21494 21495 21496 21497 21498 21499 21500 21501 21502 21503 21504 21505 21506 21507 21508 21509 21510 21511 21512 21513 21514 21515 21516 21517 21518 21519 21520 21521 21522 21523 21524 21525 21526 21527 21528 21529 21530 21531 21532 21533 21534 21535 21536 21537 21538 21539 21540 21841 21842 21843 21844 21845 21846 21847 21848 21849 21850 21851 21852 21853 21854 21855 21856 21857 21858 21859 21860 21861 21862 21863 21864 21865 2186