# vtk DataFile Version 3.0
This file was generated by ESMC 
ASCII
DATASET UNSTRUCTURED_GRID
POINTS 10980 double
0.0261769 0 -0.999657
0.0436194 0 -0.999048
0.0610485 0 -0.998135
0.0784591 0 -0.996917
0.0958458 0 -0.995396
0.113203 0 -0.993572
0.130526 0 -0.991445
0.147809 0 -0.989016
0.165048 0 -0.986286
0.182236 0 -0.983255
0.199368 0 -0.979925
0.21644 0 -0.976296
0.233445 0 -0.97237
0.25038 0 -0.968148
0.267238 0 -0.96363
0.284015 0 -0.95882
0.300706 0 -0.953717
0.317305 0 -0.948324
0.333807 0 -0.942641
0.350207 0 -0.936672
0.366501 0 -0.930418
0.382683 0 -0.92388
0.398749 0 -0.91706
0.414693 0 -0.909961
0.430511 0 -0.902585
0.446198 0 -0.894934
0.461749 0 -0.887011
0.477159 0 -0.878817
0.492424 0 -0.870356
0.507538 0 -0.861629
0.522499 0 -0.85264
0.5373 0 -0.843391
0.551937 0 -0.833886
0.566406 0 -0.824126
0.580703 0 -0.814116
0.594823 0 -0.803857
0.608761 0 -0.793353
0.622515 0 -0.782608
0.636078 0 -0.771625
0.649448 0 -0.760406
0.66262 0 -0.748956
0.67559 0 -0.737277
0.688355 0 -0.725374
0.700909 0 -0.71325
0.71325 0 -0.700909
0.725374 0 -0.688355
0.737277 0 -0.67559
0.748956 0 -0.66262
0.760406 0 -0.649448
0.771625 0 -0.636078
0.782608 0 -0.622515
0.793353 0 -0.608761
0.803857 0 -0.594823
0.814116 0 -0.580703
0.824126 0 -0.566406
0.833886 0 -0.551937
0.843391 0 -0.5373
0.85264 0 -0.522499
0.861629 0 -0.507538
0.870356 0 -0.492424
0.878817 0 -0.477159
0.887011 0 -0.461749
0.894934 0 -0.446198
0.902585 0 -0.430511
0.909961 0 -0.414693
0.91706 0 -0.398749
0.92388 0 -0.382683
0.930418 0 -0.366501
0.936672 0 -0.350207
0.942641 0 -0.333807
0.948324 0 -0.317305
0.953717 0 -0.300706
0.95882 0 -0.284015
0.96363 0 -0.267238
0.968148 0 -0.25038
0.97237 0 -0.233445
0.976296 0 -0.21644
0.979925 0 -0.199368
0.983255 0 -0.182236
0.986286 0 -0.165048
0.989016 0 -0.147809
0.991445 0 -0.130526
0.993572 0 -0.113203
0.995396 0 -0.0958458
0.996917 0 -0.0784591
0.998135 0 -0.0610485
0.999048 0 -0.0436194
0.999657 0 -0.0261769
0.999962 0 -0.00872654
0.999962 0 0.00872654
0.999657 0 0.0261769
0.999048 0 0.0436194
0.998135 0 0.0610485
0.996917 0 0.0784591
0.995396 0 0.0958458
0.993572 0 0.113203
0.991445 0 0.130526
0.989016 0 0.147809
0.986286 0 0.165048
0.983255 0 0.182236
0.979925 0 0.199368
0.976296 0 0.21644
0.97237 0 0.233445
0.968148 0 0.25038
0.96363 0 0.267238
0.95882 0 0.284015
0.953717 0 0.300706
0.948324 0 0.317305
0.942641 0 0.333807
0.936672 0 0.350207
0.930418 0 0.366501
0.92388 0 0.382683
0.91706 0 0.398749
0.909961 0 0.414693
0.902585 0 0.430511
0.894934 0 0.446198
0.887011 0 0.461749
0.878817 0 0.477159
0.870356 0 0.492424
0.861629 0 0.507538
0.85264 0 0.522499
0.843391 0 0.5373
0.833886 0 0.551937
0.824126 0 0.566406
0.814116 0 0.580703
0.803857 0 0.594823
0.793353 0 0.608761
0.782608 0 0.622515
0.771625 0 0.636078
0.760406 0 0.649448
0.748956 0 0.66262
0.737277 0 0.67559
0.725374 0 0.688355
0.71325 0 0.700909
0.700909 0 0.71325
0.688355 0 0.725374
0.67559 0 0.737277
0.66262 0 0.748956
0.649448 0 0.760406
0.636078 0 0.771625
0.622515 0 0.782608
0.608761 0 0.793353
0.594823 0 0.803857
0.580703 0 0.814116
0.566406 0 0.824126
0.551937 0 0.833886
0.5373 0 0.843391
0.522499 0 0.85264
0.507538 0 0.861629
0.492424 0 0.870356
0.477159 0 0.878817
0.461749 0 0.887011
0.446198 0 0.894934
0.430511 0 0.902585
0.414693 0 0.909961
0.398749 0 0.91706
0.382683 0 0.92388
0.366501 0 0.930418
0.350207 0 0.936672
0.333807 0 0.942641
0.317305 0 0.948324
0.300706 0 0.953717
0.284015 0 0.95882
0.267238 0 0.96363
0.25038 0 0.968148
0.233445 0 0.97237
0.21644 0 0.976296
0.199368 0 0.979925
0.182236 0 0.983255
0.165048 0 0.986286
0.147809 0 0.989016
0.130526 0 0.991445
0.113203 0 0.993572
0.0958458 0 0.995396
0.0784591 0 0.996917
0.0610485 0 0.998135
0.0436194 0 0.999048
0.0261769 0 0.999657
0.026173 0.000456851 -0.999657
0.026161 0.000913562 -0.999657
0.0261411 0.00137 -0.999657
0.0261132 0.00182601 -0.999657
0.0260773 0.00228147 -0.999657
0.0260335 0.00273624 -0.999657
0.0259818 0.00319017 -0.999657
0.0259222 0.00364313 -0.999657
0.0258547 0.00409498 -0.999657
0.0257793 0.00454558 -0.999657
0.025696 0.0049948 -0.999657
0.0256049 0.00544249 -0.999657
0.025506 0.00588853 -0.999657
0.0253994 0.00633278 -0.999657
0.025285 0.00677509 -0.999657
0.0251629 0.00721534 -0.999657
0.0250331 0.0076534 -0.999657
0.0248958 0.00808912 -0.999657
0.0247508 0.00852238 -0.999657
0.0245983 0.00895304 -0.999657
0.0244383 0.00938098 -0.999657
0.0242708 0.00980606 -0.999657
0.024096 0.0102281 -0.999657
0.0239138 0.0106471 -0.999657
0.0237244 0.0110629 -0.999657
0.0235277 0.0114752 -0.999657
0.0233238 0.0118841 -0.999657
0.0231129 0.0122893 -0.999657
0.0228949 0.0126908 -0.999657
0.0226699 0.0130885 -0.999657
0.022438 0.0134821 -0.999657
0.0221993 0.0138717 -0.999657
0.0219538 0.014257 -0.999657
0.0217017 0.014638 -0.999657
0.0214429 0.0150145 -0.999657
0.0211776 0.0153864 -0.999657
0.0209058 0.0157537 -0.999657
0.0206277 0.0161161 -0.999657
0.0203433 0.0164737 -0.999657
0.0200527 0.0168262 -0.999657
0.019756 0.0171736 -0.999657
0.0194533 0.0175158 -0.999657
0.0191446 0.0178526 -0.999657
0.0188301 0.018184 -0.999657
0.0185099 0.0185099 -0.999657
0.018184 0.0188301 -0.999657
0.0178526 0.0191446 -0.999657
0.0175158 0.0194533 -0.999657
0.0171736 0.019756 -0.999657
0.0168262 0.0200527 -0.999657
0.0164737 0.0203433 -0.999657
0.0161161 0.0206277 -0.999657
0.0157537 0.0209058 -0.999657
0.0153864 0.0211776 -0.999657
0.0150145 0.0214429 -0.999657
0.014638 0.0217017 -0.999657
0.014257 0.0219538 -0.999657
0.0138717 0.0221993 -0.999657
0.0134821 0.022438 -0.999657
0.0436127 0.000761263 -0.999048
0.0435928 0.00152229 -0.999048
0.0435596 0.00228286 -0.999048
0.0435131 0.00304273 -0.999048
0.0434534 0.00380168 -0.999048
0.0433804 0.00455947 -0.999048
0.0432943 0.00531587 -0.999048
0.0431949 0.00607065 -0.999048
0.0430824 0.00682358 -0.999048
0.0429567 0.00757443 -0.999048
0.042818 0.00832297 -0.999048
0.0426662 0.00906898 -0.999048
0.0425014 0.00981223 -0.999048
0.0423237 0.0105525 -0.999048
0.0421331 0.0112895 -0.999048
0.0419296 0.0120231 -0.999048
0.0417134 0.0127531 -0.999048
0.0414845 0.0134791 -0.999048
0.0412429 0.0142011 -0.999048
0.0409888 0.0149187 -0.999048
0.0407222 0.0156318 -0.999048
0.0404432 0.0163401 -0.999048
0.0401519 0.0170435 -0.999048
0.0398483 0.0177416 -0.999048
0.0395326 0.0184343 -0.999048
0.0392048 0.0191215 -0.999048
0.0388652 0.0198028 -0.999048
0.0385136 0.0204781 -0.999048
0.0381504 0.0211471 -0.999048
0.0377755 0.0218097 -0.999048
0.0373891 0.0224656 -0.999048
0.0369913 0.0231148 -0.999048
0.0365823 0.0237568 -0.999048
0.0361621 0.0243917 -0.999048
0.0357309 0.0250191 -0.999048
0.0352888 0.0256388 -0.999048
0.034836 0.0262508 -0.999048
0.0343725 0.0268548 -0.999048
0.0338986 0.0274506 -0.999048
0.0334144 0.028038 -0.999048
0.03292 0.0286169 -0.999048
0.0324155 0.0291871 -0.999048
0.0319012 0.0297484 -0.999048
0.0313772 0.0303006 -0.999048
0.0308436 0.0308436 -0.999048
0.0303006 0.0313772 -0.999048
0.0297484 0.0319012 -0.999048
0.0291871 0.0324155 -0.999048
0.0286169 0.03292 -0.999048
0.028038 0.0334144 -0.999048
0.0274506 0.0338986 -0.999048
0.0268548 0.0343725 -0.999048
0.0262508 0.034836 -0.999048
0.0256388 0.0352888 -0.999048
0.0250191 0.0357309 -0.999048
0.0243917 0.0361621 -0.999048
0.0237568 0.0365823 -0.999048
0.0231148 0.0369913 -0.999048
0.0224656 0.0373891 -0.999048
0.0610392 0.00106544 -0.998135
0.0610114 0.00213056 -0.998135
0.0609649 0.00319503 -0.998135
0.0608998 0.00425853 -0.998135
0.0608162 0.00532073 -0.998135
0.0607141 0.00638131 -0.998135
0.0605935 0.00743995 -0.998135
0.0604544 0.00849631 -0.998135
0.0602969 0.0095501 -0.998135
0.0601211 0.010601 -0.998135
0.0599269 0.0116486 -0.998135
0.0597145 0.0126927 -0.998135
0.0594839 0.0137329 -0.998135
0.0592351 0.014769 -0.998135
0.0589684 0.0158005 -0.998135
0.0586836 0.0168273 -0.998135
0.058381 0.0178489 -0.998135
0.0580606 0.018865 -0.998135
0.0577225 0.0198755 -0.998135
0.0573669 0.0208798 -0.998135
0.0569937 0.0218778 -0.998135
0.0566032 0.0228692 -0.998135
0.0561955 0.0238536 -0.998135
0.0557706 0.0248307 -0.998135
0.0553288 0.0258002 -0.998135
0.0548701 0.0267619 -0.998135
0.0543946 0.0277155 -0.998135
0.0539027 0.0286606 -0.998135
0.0533943 0.0295969 -0.998135
0.0528696 0.0305243 -0.998135
0.0523288 0.0314423 -0.998135
0.0517721 0.0323508 -0.998135
0.0511996 0.0332494 -0.998135
0.0506115 0.0341379 -0.998135
0.050008 0.035016 -0.998135
0.0493893 0.0358834 -0.998135
0.0487555 0.0367399 -0.998135
0.0481069 0.0375852 -0.998135
0.0474436 0.0384191 -0.998135
0.0467659 0.0392412 -0.998135
0.0460739 0.0400514 -0.998135
0.0453679 0.0408494 -0.998135
0.0446481 0.041635 -0.998135
0.0439146 0.0424079 -0.998135
0.0431678 0.0431678 -0.998135
0.0424079 0.0439146 -0.998135
0.041635 0.0446481 -0.998135
0.0408494 0.0453679 -0.998135
0.0400514 0.0460739 -0.998135
0.0392412 0.0467659 -0.998135
0.0384191 0.0474436 -0.998135
0.0375852 0.0481069 -0.998135
0.0367399 0.0487555 -0.998135
0.0358834 0.0493893 -0.998135
0.035016 0.050008 -0.998135
0.0341379 0.0506115 -0.998135
0.0332494 0.0511996 -0.998135
0.0323508 0.0517721 -0.998135
0.0314423 0.0523288 -0.998135
0.0784471 0.0013693 -0.996917
0.0784113 0.00273818 -0.996917
0.0783516 0.00410623 -0.996917
0.078268 0.00547303 -0.996917
0.0781605 0.00683816 -0.996917
0.0780293 0.00820121 -0.996917
0.0778743 0.00956176 -0.996917
0.0776955 0.0109194 -0.996917
0.0774931 0.0122737 -0.996917
0.0772671 0.0136243 -0.996917
0.0770176 0.0149707 -0.996917
0.0767446 0.0163126 -0.996917
0.0764482 0.0176495 -0.996917
0.0761285 0.018981 -0.996917
0.0757857 0.0203067 -0.996917
0.0754197 0.0216263 -0.996917
0.0750308 0.0229392 -0.996917
0.074619 0.0242452 -0.996917
0.0741845 0.0255438 -0.996917
0.0737274 0.0268346 -0.996917
0.0732479 0.0281172 -0.996917
0.072746 0.0293913 -0.996917
0.072222 0.0306564 -0.996917
0.071676 0.0319122 -0.996917
0.0711081 0.0331582 -0.996917
0.0705186 0.0343942 -0.996917
0.0699076 0.0356197 -0.996917
0.0692753 0.0368343 -0.996917
0.0686219 0.0380377 -0.996917
0.0679476 0.0392295 -0.996917
0.0672526 0.0404094 -0.996917
[...]
CELL_DATA 10740
SCALARS _ELEM_NUM double 1
LOOKUP_TABLE default
1 2 3 4 5 6 7 8 9 10 11 12 13 14 15 16 17 18 19 20 21 22 23 24 25 26 27 28 29 30 31 32 33 34 35 36 37 38 39 40 41 42 43 44 45 46 47 48 49 50 51 52 53 54 55 56 57 58 59 60 361 362 363 364 365 366 367 368 369 370 371 372 373 374 375 376 377 378 379 380 381 382 383 384 385 386 387 388 389 390 391 392 393 394 395 396 397 398 399 400 401 402 403 404 405 406 407 408 409 410 411 412 413 414 415 416 417 418 419 420 721 722 723 724 725 726 727 728 729 730 731 732 733 734 735 736 737 738 739 740 741 742 743 744 745 746 747 748 749 750 751 752 753 754 755 756 757 758 759 760 761 762 763 764 765 766 767 768 769 770 771 772 773 774 775 776 777 778 779 780 1081 1082 1083 1084 1085 1086 1087 1088 1089 1090 1091 1092 1093 1094 1095 1096 1097 1098 1099 1100 1101 1102 1103 1104 1105 1106 1107 1108 1109 1110 1111 1112 1113 1114 1115 1116 1117 1118 1119 1120 1121 1122 1123 1124 1125 1126 1127 1128 1129 1130 1131 1132 1133 1134 1135 1136 1137 1138 1139 1140 1441 1442 1443 1444 1445 1446 1447 1448 1449 1450 1451 1452 1453 1454 1455 1456 1457 1458 1459 1460 1461 1462 1463 1464 1465 1466 1467 1468 1469 1470 1471 1472 1473 1474 1475 1476 1477 1478 1479 1480 1481 1482 1483 1484 1485 1486 1487 1488 1489 1490 1491 1492 1493 1494 1495 1496 1497 1498 1499 1500 1801 1802 1803 1804 1805 1806 1807 1808 1809 1810 1811 1812 1813 1814 1815 1816 1817 1818 1819 1820 1821 1822 1823 1824 1825 1826 1827 1828 1829 1830 1831 1832 1833 1834 1835 1836 1837 1838 1839 1840 1841 1842 1843 1844 1845 1846 1847 1848 1849 1850 1851 1852 1853 1854 1855 1856 1857 1858 1859 1860 2161 2162 2163 2164 2165 2166 2167 2168 2169 2170 2171 2172 2173 2174 2175 2176 2177 2178 2179 2180 2181 2182 2183 2184 2185 2186 2187 2188 2189 2190 2191 2192 2193 2194 2195 2196 2197 2198 2199 2200 2201 2202 2203 2204 2205 2206 2207 2208 2209 2210 2211 2212 2213 2214 2215 2216 2217 2218 2219 2220 2521 2522 2523 2524 2525 2526 2527 2528 2529 2530 2531 2532 2533 2534 2535 2536 2537 2538 2539 2540 2541 2542 2543 2544 2545 2546 2547 2548 2549 2550 2551 2552 2553 2554 2555 2556 2557 2558 2559 2560 2561 2562 2563 2564 2565 2566 2567 2568 2569 2570 2571 2572 2573 2574 2575 2576 2577 2578 2579 2580 2881 2882 2883 2884 2885 2886 2887 2888 2889 2890 2891 2892 2893 2894 2895 2896 2897 2898 2899 2900 2901 2902 2903 2904 2905 2906 2907 2908 2909 2910 2911 2912 2913 2914 2915 2916 2917 2918 2919 2920 2921 2922 2923 2924 2925 2926 2927 2928 2929 2930 2931 2932 2933 2934 2935 2936 2937 2938 2939 2940 3241 3242 3243 3244 3245 3246 3247 3248 3249 3250 3251 3252 3253 3254 3255 3256 3257 3258 3259 3260 3261 3262 3263 3264 3265 3266 3267 3268 3269 3270 3271 3272 3273 3274 3275 3276 3277 3278 3279 3280 3281 3282 3283 3284 3285 3286 3287 3288 3289 3290 3291 3292 3293 3294 3295 3296 3297 3298 3299 3300 3601 3602 3603 3604 3605 3606 3607 3608 3609 3610 3611 3612 3613 3614 3615 3616 3617 3618 3619 3620 3621 3622 3623 3624 3625 3626 3627 3628 3629 3630 3631 3632 3633 3634 3635 3636 3637 3638 3639 3640 3641 3642 3643 3644 3645 3646 3647 3648 3649 3650 3651 3652 3653 3654 3655 3656 3657 3658 3659 3660 3961 3962 3963 3964 3965 3966 3967 3968 3969 3970 3971 3972 3973 3974 3975 3976 3977 3978 3979 3980 3981 3982 3983 3984 3985 3986 3987 3988 3989 3990 3991 3992 3993 3994 3995 3996 3997 3998 3999 4000 4001 4002 4003 4004 4005 4006 4007 4008 4009 4010 4011 4012 4013 4014 4015 4016 4017 4018 4019 4020 4321 4322 4323 4324 4325 4326 4327 4328 4329 4330 4331 4332 4333 4334 4335 4336 4337 4338 4339 4340 4341 4342 4343 4344 4345 4346 4347 4348 4349 4350 4351 4352 4353 4354 4355 4356 4357 4358 4359 4360 4361 4362 4363 4364 4365 4366 4367 4368 4369 4370 4371 4372 4373 4374 4375 4376 4377 4378 4379 4380 4681 4682 4683 4684 4685 4686 4687 4688 4689 4690 4691 4692 4693 4694 4695 4696 4697 4698 4699 4700 4701 4702 4703 4704 4705 4706 4707 4708 4709 4710 4711 4712 4713 4714 4715 4716 4717 4718 4719 4720 4721 4722 4723 4724 4725 4726 4727 4728 4729 4730 4731 4732 4733 4734 4735 4736 4737 4738 4739 4740 5041 5042 5043 5044 5045 5046 5047 5048 5049 5050 5051 5052 5053 5054 5055 5056 5057 5058 5059 5060 5061 5062 5063 5064 5065 5066 5067 5068 5069 5070 5071 5072 5073 5074 5075 5076 5077 5078 5079 5080 5081 5082 5083 5084 5085 5086 5087 5088 5089 5090 5091 5092 5093 5094 5095 5096 5097 5098 5099 5100 5401 5402 5403 5404 5405 5406 5407 5408 5409 5410 5411 5412 5413 5414 5415 5416 5417 5418 5419 5420 5421 5422 5423 5424 5425 5426 5427 5428 5429 5430 5431 5432 5433 5434 5435 5436 5437 5438 5439 5440 5441 5442 5443 5444 5445 5446 5447 5448 5449 5450 5451 5452 5453 5454 5455 5456 5457 5458 5459 5460 5761 5762 5763 5764 5765 5766 5767 5768 5769 5770 5771 5772 5773 5774 5775 5776 5777 5778 5779 5780 5781 5782 5783 5784 5785 5786 5787 5788 5789 5790 5791 5792 5793 5794 5795 5796 5797 5798 5799 5800 5801 5802 5803 5804 5805 5806 5807 5808 5809 5810 5811 5812 5813 5814 5815 5816 5817 5818 5819 5820 6121 6122 6123 6124 6125 6126 6127 6128 6129 6130 6131 6132 6133 6134 6135 6136 6137 6138 6139 6140 6141 6142 6143 6144 6145 6146 6147 6148 6149 6150 6151 6152 6153 6154 6155 6156 6157 6158 6159 6160 6161 6162 6163 6164 6165 6166 6167 6168 6169 6170 6171 6172 6173 6174 6175 6176 6177 6178 6179 6180 6481 6482 6483 6484 6485 6486 6487 6488 6489 6490 6491 6492 6493 6494 6495 6496 6497 6498 6499 6500 6501 6502 6503 6504 6505 6506 6507 6508 6509 6510 6511 6512 6513 6514 6515 6516 6517 6518 6519 6520 6521 6522 6523 6524 6525 6526 6527 6528 6529 6530 6531 6532 6533 6534 6535 6536 6537 6538 6539 6540 6841 6842 6843 6844 6845 6846 6847 6848 6849 6850 6851 6852 6853 6854 6855 6856 6857 6858 6859 6860 6861 6862 6863 6864 6865 6866 6867 6868 6869 6870 6871 6872 6873 6874 6875 6876 6877 6878 6879 6880 6881 6882 6883 6884 6885 6886 6887 6888 6889 6890 6891 6892 6893 6894 6895 6896 6897 6898 6899 6900 7201 7202 7203 7204 7205 7206 7207 7208 7209 7210 7211 7212 7213 7214 7215 7216 7217 7218 7219 7220 7221 7222 7223 7224 7225 7226 7227 7228 7229 7230 7231 7232 7233 7234 7235 7236 7237 7238 7239 7240 7241 7242 7243 7244 7245 7246 7247 7248 7249 7250 7251 7252 7253 7254 7255 7256 7257 7258 7259 7260 7561 7562 7563 7564 7565 7566 7567 7568 7569 7570 7571 7572 7573 7574 7575 7576 7577 7578 7579 7580 7581 7582 7583 7584 7585 7586 7587 7588 7589 7590 7591 7592 7593 7594 7595 7596 7597 7598 7599 7600 7601 7602 7603 7604 7605 7606 7607 7608 7609 7610 7611 7612 7613 7614 7615 7616 7617 7618 7619 7620 7921 7922 7923 7924 7925 7926 7927 7928 7929 7930 7931 7932 7933 7934 7935 7936 7937 7938 7939 7940 7941 7942 7943 7944 7945 7946 7947 7948 7949 7950 7951 7952 7953 7954 7955 7956 7957 7958 7959 7960 7961 7962 7963 7964 7965 7966 7967 7968 7969 7970 7971 7972 7973 7974 7975 7976 7977 7978 7979 7980 8281 8282 8283 8284 8285 8286 8287 8288 8289 8290 8291 8292 8293 8294 8295 8296 8297 8298 8299 8300 8301 8302 8303 8304 8305 8306 8307 8308 8309 8310 8311 8312 8313 8314 8315 8316 8317 8318 8319 8320 8321 8322 8323 8324 8325 8326 8327 8328 8329 8330 8331 8332 8333 8334 8335 8336 8337 8338 8339 8340 8641 8642 8643 8644 8645 8646 8647 8648 8649 8650 8651 8652 8653 8654 8655 8656 8657 8658 8659 8660 8661 8662 8663 8664 8665 8666 8667 8668 8669 8670 8671 8672 8673 8674 8675 8676 8677 8678 8679 8680 8681 8682 8683 8684 8685 8686 8687 8688 8689 8690 8691 8692 8693 8694 8695 8696 8697 8698 8699 8700 9001 9002 9003 9004 9005 9006 9007 9008 9009 9010 9011 9012 9013 9014 9015 9016 9017 9018 9019 9020 9021 9022 9023 9024 9025 9026 9027 9028 9029 9030 9031 9032 9033 9034 9035 9036 9037 9038 9039 9040 9041 9042 9043 9044 9045 9046 9047 9048 9049 9050 9051 9052 9053 9054 9055 9056 9057 9058 9059 9060 9361 9362 9363 9364 9365 9366 9367 9368 9369 9370 9371 9372 9373 9374 9375 9376 9377 9378 9379 9380 9381 9382 9383 9384 9385 9386 9387 9388 9389 9390 9391 9392 9393 9394 9395 9396 9397 9398 9399 9400 9401 9402 9403 9404 9405 9406 9407 9408 9409 9410 9411 9412 9413 9414 9415 9416 9417 9418 9419 9420 9721 9722 9723 9724 9725 9726 9727 9728 9729 9730 9731 9732 9733 9734 9735 9736 9737 9738 9739 9740 9741 9742 9743 9744 9745 9746 9747 9748 9749 9750 9751 9752 9753 9754 9755 9756 9757 9758 9759 9760 9761 9762 9763 9764 9765 9766 9767 9768 9769 9770 9771 9772 9773 9774 9775 9776 9777 9778 9779 9780 10081 10082 10083 10084 10085 10086 10087 10088 10089 10090 10091 10092 10093 10094 10095 10096 10097 10098 10099 10100 10101 10102 10103 10104 10105 10106 10107 10108 10109 10110 10111 10112 10113 10114 10115 10116 10117 10118 10119 10120 10121 10122 10123 10124 10125 10126 10127 10128 10129 10130 10131 10132 10133 10134 10135 10136 10137 10138 10139 10140 10441 10442 10443 10444 10445 10446 10447 10448 10449 10450 10451 10452 10453 10454 10455 10456 10457 10458 10459 10460 10461 10462 10463 10464 10465 10466 10467 10468 10469 10470 10471 10472 10473 10474 10475 10476 10477 10478 10479 10480 10481 10482 10483 10484 10485 10486 10487 10488 10489 10490 10491 10492 10493 10494 10495 10496 10497 10498 10499 10500 10801 10802 10803 10804 10805 10806 10807 10808 10809 10810 10811 10812 10813 10814 10815 10816 10817 10818 10819 10820 10821 10822 10823 10824 10825 10826 10827 10828 10829 10830 10831 10832 10833 10834 10835 10836 10837 10838 10839 10840 10841 10842 10843 10844 10845 10846 10847 10848 10849 10850 10851 10852 10853 10854 10855 10856 10857 10858 10859 10860 11161 11162 11163 11164 11165 11166 11167 11168 11169 11170 11171 11172 11173 11174 11175 11176 11177 11178 11179 11180 11181 11182 11183 11184 11185 11186 11187 11188 11189 11190 11191 11192 11193 11194 11195 11196 11197 11198 11199 11200 11201 11202 11203 11204 11205 11206 11207 11208 11209 11210 11211 11212 11213 11214 11215 11216 11217 11218 11219 11220 11521 11522 11523 11524 11525 11526 11527 11528 11529 11530 11531 11532 11533 11534 11535 11536 11537 11538 11539 11540 11541 11542 11543 11544 11545 11546 11547 11548 11549 11550 11551 11552 11553 11554 11555 11556 11557 11558 11559 11560 11561 11562 11563 11564 11565 11566 11567 11568 11569 11570 11571 11572 11573 11574 11575 11576 11577 11578 11579 11580 11881 11882 11883 11884 11885 11886 11887 11888 11889 11890 11891 11892 11893 11894 11895 11896 11897 11898 11899 11900 11901 11902 11903 11904 11905 11906 11907 11908 11909 11910 11911 11912 11913 11914 11915 11916 11917 11918 11919 11920 11921 11922 11923 11924 11925 11926 11927 11928 11929 11930 11931 11932 11933 11934 11935 11936 11937 11938 11939 11940 12241 12242 12243 12244 12245 12246 12247 12248 12249 12250 12251 12252 12253 12254 12255 12256 12257 12258 12259 12260 12261 12262 12263 12264 12265 12266 12267 12268 12269 12270 12271 12272 12273 12274 12275 12276 12277 12278 12279 12280 12281 12282 12283 12284 12285 12286 12287 12288 12289 12290 12291 12292 12293 12294 12295 12296 12297 12298 12299 12300 12601 12602 12603 12604 12605 12606 12607 12608 12609 12610 12611 12612 12613 12614 12615 12616 12617 12618 12619 12620 12621 12622 12623 12624 12625 12626 12627 12628 12629 12630 12631 12632 12633 12634 12635 12636 12637 12638 12639 12640 12641 12642 12643 12644 12645 12646 12647 12648 12649 12650 12651 12652 12653 12654 12655 12656 12657 12658 12659 12660 12961 12962 12963 12964 12965 12966 12967 12968 12969 12970 12971 12972 12973 12974 12975 12976 12977 12978 12979 12980 12981 12982 12983 12984 12985 12986 12987 12988 12989 12990 12991 12992 12993 12994 12995 12996 12997 12998 12999 13000 13001 13002 13003 13004 13005 13006 13007 13008 13009 13010 13011 13012 13013 13014 13015 13016 13017 13018 13019 13020 13321 13322 13323 13324 13325 13326 13327 13328 13329 13330 13331 13332 13333 13334 13335 13336 13337 13338 13339 13340 13341 13342 13343 13344 13345 13346 13347 13348 13349 13350 13351 13352 13353 13354 13355 13356 13357 13358 13359 13360 13361 13362 13363 13364 13365 13366 13367 13368 13369 13370 13371 13372 13373 13374 13375 13376 13377 13378 13379 13380 13681 13682 13683 13684 13685 13686 13687 13688 13689 13690 13691 13692 13693 13694 13695 13696 13697 13698 13699 13700 13701 13702 13703 13704 13705 13706 13707 13708 13709 13710 13711 13712 13713 13714 13715 13716 13717 13718 13719 13720 13721 13722 13723 13724 13725 13726 13727 13728 13729 13730 13731 13732 13733 13734 13735 13736 13737 13738 13739 13740 14041 14042 14043 14044 14045 14046 14047 14048 14049 14050 14051 14052 14053 14054 14055 14056 14057 14058 14059 14060 14061 14062 14063 14064 14065 14066 14067 14068 14069 14070 14071 14072 14073 14074 14075 14076 14077 14078 14079 14080 14081 14082 14083 14084 14085 14086 14087 14088 14089 14090 14091 14092 14093 14094 14095 14096 14097 14098 14099 14100 14401 14402 14403 14404 14405 14406 14407 14408 14409 14410 14411 14412 14413 14414 14415 14416 14417 14418 14419 14420 14421 14422 14423 14424 14425 14426 14427 14428 14429 14430 14431 14432 14433 14434 14435 14436 14437 14438 14439 14440 14441 14442 14443 14444 14445 14446 14447 14448 14449 14450 14451 14452 14453 14454 14455 14456 14457 14458 14459 14460 14761 14762 14763 14764 14765 14766 14767 14768 14769 14770 14771 14772 14773 14774 14775 14776 14777 14778 14779 14780 14781 14782 14783 14784 14785 14786 14787 14788 14789 14790 14791 14792 14793 14794 14795 14796 14797 14798 14799 14800 14801 14802 14803 14804 14805 14806 14807 14808 14809 14810 14811 14812 14813 14814 14815 14816 14817 14818 14819 14820 15121 15122 15123 15124 15125 15126 15127 15128 15129 15130 15131 15132 15133 15134 15135 15136 15137 15138 15139 15140 15141 15142 15143 15144 15145 15146 15147 15148 15149 15150 15151 15152 15153 15154 15155 15156 15157 15158 15159 15160 15161 15162 15163 15164 15165 15166 15167 15168 15169 15170 15171 15172 15173 15174 15175 15176 15177 15178 15179 15180 15481 15482 15483 15484 15485 15486 15487 15488 15489 15490 15491 15492 15493 15494 15495 15496 15497 15498 15499 15500 15501 15502 15503 15504 15505 15506 15507 15508 15509 15510 15511 15512 15513 15514 15515 15516 15517 15518 15519 15520 15521 15522 15523 15524 15525 15526 15527 15528 15529 15530 15531 15532 15533 15534 15535 15536 15537 15538 15539 15540 15841 15842 15843 15844 15845 15846 15847 15848 15849 15850 15851 15852 15853 15854 15855 15856 15857 15858 15859 15860 15861 15862 15863 15864 15865 15866 15867 15868 15869 15870 15871 15872 15873 15874 15875 15876 15877 15878 15879 15880 15881 15882 15883 15884 15885 15886 15887 15888 15889 15890 15891 15892 15893 15894 15895 15896 15897 15898 15899 15900 16201 16202 16203 16204 16205 16206 16207 16208 16209 16210 16211 16212 16213 16214 16215 16216 16217 16218 16219 16220 16221 16222 16223 16224 16225 16226 16227 16228 16229 16230 16231 16232 16233 16234 16235 16236 16237 16238 16239 16240 16241 16242 16243 16244 16245 16246 16247 16248 16249 16250 16251 16252 16253 16254 16255 16256 16257 16258 16259 16260 16561 16562 16563 16564 16565 16566 16567 16568 16569 16570 16571 16572 16573 16574 16575 16576 16577 16578 16579 16580 16581 16582 16583 16584 16585 16586 16587 16588 16589 16590 16591 16592 16593 16594 16595 16596 16597 16598 16599 16600 16601 16602 16603 16604 16605 16606 16607 16608 16609 16610 16611 16612 16613 16614 16615 16616 16617 16618 16619 16620 16921 16922 16923 16924 16925 16926 16927 16928 16929 16930 16931 16932 16933 16934 16935 16936 16937 16938 16939 16940 16941 16942 16943 16944 16945 16946 16947 16948 16949 16950 16951 16952 16953 16954 16955 16956 16957 16958 16959 16960 16961 16962 16963 16964 16965 16966 16967 16968 16969 16970 16971 16972 16973 16974 16975 16976 16977 16978 16979 16980 17281 17282 17283 17284 17285 17286 17287 17288 17289 17290 17291 17292 17293 17294 17295 17296 17297 17298 17299 17300 17301 17302 17303 17304 17305 17306 17307 17308 17309 17310 17311 17312 17313 17314 17315 17316 17317 17318 17319 17320 17321 17322 17323 17324 17325 17326 17327 17328 17329 17330 17331 17332 17333 17334 17335 17336 17337 17338 17339 17340 17641 17642 17643 17644 17645 17646 17647 17648 17649 17650 17651 17652 17653 17654 17655 17656 17657 17658 17659 17660 17661 17662 17663 17664 17665 17666 17667 17668 17669 17670 17671 17672 17673 17674 17675 17676 17677 17678 17679 17680 17681 17682 17683 17684 17685 17686 17687 17688 17689 17690 17691 17692 17693 17694 17695 17696 17697 17698 17699 17700 18001 18002 18003 18004 18005 18006 18007 18008 18009 18010 18011 18012 18013 18014 18015 18016 18017 18018 18019 18020 18021 18022 18023 18024 18025 18026 18027 18028 18029 18030 18031 18032 18033 18034 18035 18036 18037 18038 18039 18040 18041 18042 18043 18044 18045 18046 18047 18048 18049 18050 18051 18052 18053 18054 18055 18056 18057 18058 18059 18060 18361 18362 18363 18364 18365 18366 18367 18368 18369 18370 18371 18372 18373 18374 18375 18376 18377 18378 18379 18380 18381 18382 18383 18384 18385 18386 18387 18388 18389 18390 18391 18392 18393 18394 18395 18396 18397 18398 18399 18400 18401 18402 18403 18404 18405 18406 18407 18408 18409 18410 18411 18412 18413 18414 18415 18416 18417 18418 18419 18420 18721 18722 18723 18724 18725 18726 18727 18728 18729 18730 18731 18732 18733 18734 18735 18736 18737 18738 18739 18740 18741 18742 18743 18744 18745 18746 18747 18748 18749 18750 18751 18752 18753 18754 18755 18756 18757 18758 18759 18760 18761 18762 18763 18764 18765 18766 18767 18768 18769 18770 18771 18772 18773 18774 18775 18776 18777 18778 18779 18780 19081 19082 19083 19084 19085 19086 19087 19088 19089 19090 19091 19092 19093 19094 19095 19096 19097 19098 19099 19100 19101 19102 19103 19104 19105 19106 19107 19108 19109 19110 19111 19112 19113 19114 19115 19116 19117 19118 19119 19120 19121 19122 19123 19124 19125 19126 19127 19128 19129 19130 19131 19132 19133 19134 19135 19136 19137 19138 19139 19140 19441 19442 19443 19444 19445 19446 19447 19448 19449 19450 19451 19452 19453 19454 19455 19456 19457 19458 19459 19460 19461 19462 19463 19464 19465 19466 19467 19468 19469 19470 19471 19472 19473 19474 19475 19476 19477 19478 19479 19480 19481 19482 19483 19484 19485 19486 19487 19488 19489 19490 19491 19492 19493 19494 19495 19496 19497 19498 19499 19500 19801 19802 19803 19804 19805 19806 19807 19808 19809 19810 19811 19812 19813 19814 19815 19816 19817 19818 19819 19820 19821 19822 19823 19824 19825 19826 19827 19828 19829 19830 19831 19832 19833 19834 19835 19836 19837 19838 19839 19840 19841 19842 19843 19844 19845 19846 19847 19848 19849 19850 19851 19852 19853 19854 19855 19856 19857 19858 19859 19860 20161 20162 20163 20164 20165 20166 20167 20168 20169 20170 20171 20172 20173 20174 20175 20176 20177 20178 20179 20180 20181 20182 20183 20184 20185 20186 20187 20188 20189 20190 20191 20192 20193 20194 20195 20196 20197 20198 20199 20200 20201 20202 20203 20204 20205 20206 20207 20208 20209 20210 20211 20212 20213 20214 20215 20216 20217 20218 20219 20220 20521 20522 20523 20524 20525 20526 20527 20528 20529 20530 20531 20532 20533 20534 20535 20536 20537 20538 20539 20540 20541 20542 20543 20544 20545 20546 20547 20548 20549 20550 20551 20552 20553 20554 20555 20556 20557 20558 20559 20560 20561 20562 20563 20564 20565 20566 20567 20568 20569 20570 20571 20572 20573 20574 20575 20576 20577 20578 20579 20580 20881 20882 20883 20884 20885 20886 20887 20888 20889 20890 20891 20892 20893 20894 20895 20896 20897 20898 20899 20900 20901 20902 20903 20904 20905 20906 20907 20908 20909 20910 20911 20912 20913 20914 20915 20916 20917 20918 20919 20920 20921 20922 20923 20924 20925 20926 20927 20928 20929 20930 20931 20932 20933 20934 20935 20936 20937 20938 20939 20940 21241 21242 21243 21244 21245 21246 21247 21248 21249 21250 21251 21252 21253 21254 21255 21256 21257 21258 21259 21260 21261 21262 21263 21264 21265 21266 21267 21268 21269 21270 21271 21272 21273 21274 21275 21276 21277 21278 21279 21280 21281 21282 21283 21284 21285 21286 21287 21288 21289 21290 21291 21292 21293 21294 21295 21296 21297 21298 21299 21300 21601 21602 21603 21604 21605 21606 21607 21608 21609 21610 21611 21612 21613 21614 21615 21616 21617 21618 21619 21620 21621 21622 21623 21624 21625 21626 21627 21628 21629 21630 21631 21632 21633 21634 21635 21636 21637 21638 21639 21640 21641 21642 21643 21644 2