# vtk DataFile Version 3.0
This file was generated by ESMC 
ASCII
DATASET UNSTRUCTURED_GRID
POINTS 10980 double
0.0130885 -0.0226699 -0.999657
0.0218097 -0.0377755 -0.999048
0.0305243 -0.0528696 -0.998135
0.0392295 -0.0679476 -0.996917
0.0479229 -0.0830049 -0.995396
0.0566016 -0.0980369 -0.993572
0.0652631 -0.113039 -0.991445
0.0739047 -0.128007 -0.989016
0.0825238 -0.142935 -0.986286
0.0911178 -0.157821 -0.983255
0.099684 -0.172658 -0.979925
0.10822 -0.187442 -0.976296
0.116723 -0.20217 -0.97237
0.12519 -0.216835 -0.968148
0.133619 -0.231435 -0.96363
0.142008 -0.245965 -0.95882
0.150353 -0.260419 -0.953717
0.158652 -0.274794 -0.948324
0.166903 -0.289085 -0.942641
0.175104 -0.303288 -0.936672
0.183251 -0.317399 -0.930418
0.191342 -0.331414 -0.92388
0.199375 -0.345327 -0.91706
0.207347 -0.359135 -0.909961
0.215256 -0.372834 -0.902585
0.223099 -0.386419 -0.894934
0.230874 -0.399886 -0.887011
0.238579 -0.413232 -0.878817
0.246212 -0.426451 -0.870356
0.253769 -0.439541 -0.861629
0.261249 -0.452497 -0.85264
0.26865 -0.465315 -0.843391
0.275968 -0.477991 -0.833886
0.283203 -0.490522 -0.824126
0.290351 -0.502904 -0.814116
0.297411 -0.515132 -0.803857
0.304381 -0.527203 -0.793353
0.311257 -0.539113 -0.782608
0.318039 -0.55086 -0.771625
0.324724 -0.562439 -0.760406
0.33131 -0.573846 -0.748956
0.337795 -0.585078 -0.737277
0.344177 -0.596133 -0.725374
0.350455 -0.607005 -0.71325
0.356625 -0.617693 -0.700909
0.362687 -0.628193 -0.688355
0.368639 -0.638501 -0.67559
0.374478 -0.648615 -0.66262
0.380203 -0.658531 -0.649448
0.385812 -0.668246 -0.636078
0.391304 -0.677759 -0.622515
0.396677 -0.687064 -0.608761
0.401928 -0.69616 -0.594823
0.407058 -0.705045 -0.580703
0.412063 -0.713714 -0.566406
0.416943 -0.722166 -0.551937
0.421696 -0.730398 -0.5373
0.42632 -0.738408 -0.522499
0.430815 -0.746193 -0.507538
0.435178 -0.75375 -0.492424
0.439409 -0.761078 -0.477159
0.443505 -0.768174 -0.461749
0.447467 -0.775036 -0.446198
0.451293 -0.781662 -0.430511
0.454981 -0.78805 -0.414693
0.45853 -0.794197 -0.398749
0.46194 -0.800103 -0.382683
0.465209 -0.805765 -0.366501
0.468336 -0.811182 -0.350207
0.471321 -0.816351 -0.333807
0.474162 -0.821272 -0.317305
0.476858 -0.825943 -0.300706
0.47941 -0.830362 -0.284015
0.481815 -0.834528 -0.267238
0.484074 -0.83844 -0.25038
0.486185 -0.842097 -0.233445
0.488148 -0.845497 -0.21644
0.489962 -0.84864 -0.199368
0.491627 -0.851524 -0.182236
0.493143 -0.854148 -0.165048
0.494508 -0.856513 -0.147809
0.495722 -0.858616 -0.130526
0.496786 -0.860458 -0.113203
0.497698 -0.862038 -0.0958458
0.498459 -0.863356 -0.0784591
0.499067 -0.86441 -0.0610485
0.499524 -0.865201 -0.0436194
0.499829 -0.865729 -0.0261769
0.499981 -0.865992 -0.00872654
0.499981 -0.865992 0.00872654
0.499829 -0.865729 0.0261769
0.499524 -0.865201 0.0436194
0.499067 -0.86441 0.0610485
0.498459 -0.863356 0.0784591
0.497698 -0.862038 0.0958458
0.496786 -0.860458 0.113203
0.495722 -0.858616 0.130526
0.494508 -0.856513 0.147809
0.493143 -0.854148 0.165048
0.491627 -0.851524 0.182236
0.489962 -0.84864 0.199368
0.488148 -0.845497 0.21644
0.486185 -0.842097 0.233445
0.484074 -0.83844 0.25038
0.481815 -0.834528 0.267238
0.47941 -0.830362 0.284015
0.476858 -0.825943 0.300706
0.474162 -0.821272 0.317305
0.471321 -0.816351 0.333807
0.468336 -0.811182 0.350207
0.465209 -0.805765 0.366501
0.46194 -0.800103 0.382683
0.45853 -0.794197 0.398749
0.454981 -0.78805 0.414693
0.451293 -0.781662 0.430511
0.447467 -0.775036 0.446198
0.443505 -0.768174 0.461749
0.439409 -0.761078 0.477159
0.435178 -0.75375 0.492424
0.430815 -0.746193 0.507538
0.42632 -0.738408 0.522499
0.421696 -0.730398 0.5373
0.416943 -0.722166 0.551937
0.412063 -0.713714 0.566406
0.407058 -0.705045 0.580703
0.401928 -0.69616 0.594823
0.396677 -0.687064 0.608761
0.391304 -0.677759 0.622515
0.385812 -0.668246 0.636078
0.380203 -0.658531 0.649448
0.374478 -0.648615 0.66262
0.368639 -0.638501 0.67559
0.362687 -0.628193 0.688355
0.356625 -0.617693 0.700909
0.350455 -0.607005 0.71325
0.344177 -0.596133 0.725374
0.337795 -0.585078 0.737277
0.33131 -0.573846 0.748956
0.324724 -0.562439 0.760406
0.318039 -0.55086 0.771625
0.311257 -0.539113 0.782608
0.304381 -0.527203 0.793353
0.297411 -0.515132 0.803857
0.290351 -0.502904 0.814116
0.283203 -0.490522 0.824126
0.275968 -0.477991 0.833886
0.26865 -0.465315 0.843391
0.261249 -0.452497 0.85264
0.253769 -0.439541 0.861629
0.246212 -0.426451 0.870356
0.238579 -0.413232 0.878817
0.230874 -0.399886 0.887011
0.223099 -0.386419 0.894934
0.215256 -0.372834 0.902585
0.207347 -0.359135 0.909961
0.199375 -0.345327 0.91706
0.191342 -0.331414 0.92388
0.183251 -0.317399 0.930418
0.175104 -0.303288 0.936672
0.166903 -0.289085 0.942641
0.158652 -0.274794 0.948324
0.150353 -0.260419 0.953717
0.142008 -0.245965 0.95882
0.133619 -0.231435 0.96363
0.12519 -0.216835 0.968148
0.116723 -0.20217 0.97237
0.10822 -0.187442 0.976296
0.099684 -0.172658 0.979925
0.0911178 -0.157821 0.983255
0.0825238 -0.142935 0.986286
0.0739047 -0.128007 0.989016
0.0652631 -0.113039 0.991445
0.0566016 -0.0980369 0.993572
0.0479229 -0.0830049 0.995396
0.0392295 -0.0679476 0.996917
0.0305243 -0.0528696 0.998135
0.0218097 -0.0377755 0.999048
0.0130885 -0.0226699 0.999657
0.0134821 -0.022438 -0.999657
0.0138717 -0.0221993 -0.999657
0.014257 -0.0219538 -0.999657
0.014638 -0.0217017 -0.999657
0.0150145 -0.0214429 -0.999657
0.0153864 -0.0211776 -0.999657
0.0157537 -0.0209058 -0.999657
0.0161161 -0.0206277 -0.999657
0.0164737 -0.0203433 -0.999657
0.0168262 -0.0200527 -0.999657
0.0171736 -0.019756 -0.999657
0.0175158 -0.0194533 -0.999657
0.0178526 -0.0191446 -0.999657
0.018184 -0.0188301 -0.999657
0.0185099 -0.0185099 -0.999657
0.0188301 -0.018184 -0.999657
0.0191446 -0.0178526 -0.999657
0.0194533 -0.0175158 -0.999657
0.019756 -0.0171736 -0.999657
0.0200527 -0.0168262 -0.999657
0.0203433 -0.0164737 -0.999657
0.0206277 -0.0161161 -0.999657
0.0209058 -0.0157537 -0.999657
0.0211776 -0.0153864 -0.999657
0.0214429 -0.0150145 -0.999657
0.0217017 -0.014638 -0.999657
0.0219538 -0.014257 -0.999657
0.0221993 -0.0138717 -0.999657
0.022438 -0.0134821 -0.999657
0.0226699 -0.0130885 -0.999657
0.0228949 -0.0126908 -0.999657
0.0231129 -0.0122893 -0.999657
0.0233238 -0.0118841 -0.999657
0.0235277 -0.0114752 -0.999657
0.0237244 -0.0110629 -0.999657
0.0239138 -0.0106471 -0.999657
0.024096 -0.0102281 -0.999657
0.0242708 -0.00980606 -0.999657
0.0244383 -0.00938098 -0.999657
0.0245983 -0.00895304 -0.999657
0.0247508 -0.00852238 -0.999657
0.0248958 -0.00808912 -0.999657
0.0250331 -0.0076534 -0.999657
0.0251629 -0.00721534 -0.999657
0.025285 -0.00677509 -0.999657
0.0253994 -0.00633278 -0.999657
0.025506 -0.00588853 -0.999657
0.0256049 -0.00544249 -0.999657
0.025696 -0.0049948 -0.999657
0.0257793 -0.00454558 -0.999657
0.0258547 -0.00409498 -0.999657
0.0259222 -0.00364313 -0.999657
0.0259818 -0.00319017 -0.999657
0.0260335 -0.00273624 -0.999657
0.0260773 -0.00228147 -0.999657
0.0261132 -0.00182601 -0.999657
0.0261411 -0.00137 -0.999657
0.026161 -0.000913562 -0.999657
0.026173 -0.000456851 -0.999657
0.0224656 -0.0373891 -0.999048
0.0231148 -0.0369913 -0.999048
0.0237568 -0.0365823 -0.999048
0.0243917 -0.0361621 -0.999048
0.0250191 -0.0357309 -0.999048
0.0256388 -0.0352888 -0.999048
0.0262508 -0.034836 -0.999048
0.0268548 -0.0343725 -0.999048
0.0274506 -0.0338986 -0.999048
0.028038 -0.0334144 -0.999048
0.0286169 -0.03292 -0.999048
0.0291871 -0.0324155 -0.999048
0.0297484 -0.0319012 -0.999048
0.0303006 -0.0313772 -0.999048
0.0308436 -0.0308436 -0.999048
0.0313772 -0.0303006 -0.999048
0.0319012 -0.0297484 -0.999048
0.0324155 -0.0291871 -0.999048
0.03292 -0.0286169 -0.999048
0.0334144 -0.028038 -0.999048
0.0338986 -0.0274506 -0.999048
0.0343725 -0.0268548 -0.999048
0.034836 -0.0262508 -0.999048
0.0352888 -0.0256388 -0.999048
0.0357309 -0.0250191 -0.999048
0.0361621 -0.0243917 -0.999048
0.0365823 -0.0237568 -0.999048
0.0369913 -0.0231148 -0.999048
0.0373891 -0.0224656 -0.999048
0.0377755 -0.0218097 -0.999048
0.0381504 -0.0211471 -0.999048
0.0385136 -0.0204781 -0.999048
0.0388652 -0.0198028 -0.999048
0.0392048 -0.0191215 -0.999048
0.0395326 -0.0184343 -0.999048
0.0398483 -0.0177416 -0.999048
0.0401519 -0.0170435 -0.999048
0.0404432 -0.0163401 -0.999048
0.0407222 -0.0156318 -0.999048
0.0409888 -0.0149187 -0.999048
0.0412429 -0.0142011 -0.999048
0.0414845 -0.0134791 -0.999048
0.0417134 -0.0127531 -0.999048
0.0419296 -0.0120231 -0.999048
0.0421331 -0.0112895 -0.999048
0.0423237 -0.0105525 -0.999048
0.0425014 -0.00981223 -0.999048
0.0426662 -0.00906898 -0.999048
0.042818 -0.00832297 -0.999048
0.0429567 -0.00757443 -0.999048
0.0430824 -0.00682358 -0.999048
0.0431949 -0.00607065 -0.999048
0.0432943 -0.00531587 -0.999048
0.0433804 -0.00455947 -0.999048
0.0434534 -0.00380168 -0.999048
0.0435131 -0.00304273 -0.999048
0.0435596 -0.00228286 -0.999048
0.0435928 -0.00152229 -0.999048
0.0436127 -0.000761263 -0.999048
0.0314423 -0.0523288 -0.998135
0.0323508 -0.0517721 -0.998135
0.0332494 -0.0511996 -0.998135
0.0341379 -0.0506115 -0.998135
0.035016 -0.050008 -0.998135
0.0358834 -0.0493893 -0.998135
0.0367399 -0.0487555 -0.998135
0.0375852 -0.0481069 -0.998135
0.0384191 -0.0474436 -0.998135
0.0392412 -0.0467659 -0.998135
0.0400514 -0.0460739 -0.998135
0.0408494 -0.0453679 -0.998135
0.041635 -0.0446481 -0.998135
0.0424079 -0.0439146 -0.998135
0.0431678 -0.0431678 -0.998135
0.0439146 -0.0424079 -0.998135
0.0446481 -0.041635 -0.998135
0.0453679 -0.0408494 -0.998135
0.0460739 -0.0400514 -0.998135
0.0467659 -0.0392412 -0.998135
0.0474436 -0.0384191 -0.998135
0.0481069 -0.0375852 -0.998135
0.0487555 -0.0367399 -0.998135
0.0493893 -0.0358834 -0.998135
0.050008 -0.035016 -0.998135
0.0506115 -0.0341379 -0.998135
0.0511996 -0.0332494 -0.998135
0.0517721 -0.0323508 -0.998135
0.0523288 -0.0314423 -0.998135
0.0528696 -0.0305243 -0.998135
0.0533943 -0.0295969 -0.998135
0.0539027 -0.0286606 -0.998135
0.0543946 -0.0277155 -0.998135
0.0548701 -0.0267619 -0.998135
0.0553288 -0.0258002 -0.998135
0.0557706 -0.0248307 -0.998135
0.0561955 -0.0238536 -0.998135
[...]
CELL_DATA 10740
SCALARS _ELEM_NUM double 1
LOOKUP_TABLE default
301 302 303 304 305 306 307 308 309 310 311 312 313 314 315 316 317 318 319 320 321 322 323 324 325 326 327 328 329 330 331 332 333 334 335 336 337 338 339 340 341 342 343 344 345 346 347 348 349 350 351 352 353 354 355 356 357 358 359 360 661 662 663 664 665 666 667 668 669 670 671 672 673 674 675 676 677 678 679 680 681 682 683 684 685 686 687 688 689 690 691 692 693 694 695 696 697 698 699 700 701 702 703 704 705 706 707 708 709 710 711 712 713 714 715 716 717 718 719 720 1021 1022 1023 1024 1025 1026 1027 1028 1029 1030 1031 1032 1033 1034 1035 1036 1037 1038 1039 1040 1041 1042 1043 1044 1045 1046 1047 1048 1049 1050 1051 1052 1053 1054 1055 1056 1057 1058 1059 1060 1061 1062 1063 1064 1065 1066 1067 1068 1069 1070 1071 1072 1073 1074 1075 1076 1077 1078 1079 1080 1381 1382 1383 1384 1385 1386 1387 1388 1389 1390 1391 1392 1393 1394 1395 1396 1397 1398 1399 1400 1401 1402 1403 1404 1405 1406 1407 1408 1409 1410 1411 1412 1413 1414 1415 1416 1417 1418 1419 1420 1421 1422 1423 1424 1425 1426 1427 1428 1429 1430 1431 1432 1433 1434 1435 1436 1437 1438 1439 1440 1741 1742 1743 1744 1745 1746 1747 1748 1749 1750 1751 1752 1753 1754 1755 1756 1757 1758 1759 1760 1761 1762 1763 1764 1765 1766 1767 1768 1769 1770 1771 1772 1773 1774 1775 1776 1777 1778 1779 1780 1781 1782 1783 1784 1785 1786 1787 1788 1789 1790 1791 1792 1793 1794 1795 1796 1797 1798 1799 1800 2101 2102 2103 2104 2105 2106 2107 2108 2109 2110 2111 2112 2113 2114 2115 2116 2117 2118 2119 2120 2121 2122 2123 2124 2125 2126 2127 2128 2129 2130 2131 2132 2133 2134 2135 2136 2137 2138 2139 2140 2141 2142 2143 2144 2145 2146 2147 2148 2149 2150 2151 2152 2153 2154 2155 2156 2157 2158 2159 2160 2461 2462 2463 2464 2465 2466 2467 2468 2469 2470 2471 2472 2473 2474 2475 2476 2477 2478 2479 2480 2481 2482 2483 2484 2485 2486 2487 2488 2489 2490 2491 2492 2493 2494 2495 2496 2497 2498 2499 2500 2501 2502 2503 2504 2505 2506 2507 2508 2509 2510 2511 2512 2513 2514 2515 2516 2517 2518 2519 2520 2821 2822 2823 2824 2825 2826 2827 2828 2829 2830 2831 2832 2833 2834 2835 2836 2837 2838 2839 2840 2841 2842 2843 2844 2845 2846 2847 2848 2849 2850 2851 2852 2853 2854 2855 2856 2857 2858 2859 2860 2861 2862 2863 2864 2865 2866 2867 2868 2869 2870 2871 2872 2873 2874 2875 2876 2877 2878 2879 2880 3181 3182 3183 3184 3185 3186 3187 3188 3189 3190 3191 3192 3193 3194 3195 3196 3197 3198 3199 3200 3201 3202 3203 3204 3205 3206 3207 3208 3209 3210 3211 3212 3213 3214 3215 3216 3217 3218 3219 3220 3221 3222 3223 3224 3225 3226 3227 3228 3229 3230 3231 3232 3233 3234 3235 3236 3237 3238 3239 3240 3541 3542 3543 3544 3545 3546 3547 3548 3549 3550 3551 3552 3553 3554 3555 3556 3557 3558 3559 3560 3561 3562 3563 3564 3565 3566 3567 3568 3569 3570 3571 3572 3573 3574 3575 3576 3577 3578 3579 3580 3581 3582 3583 3584 3585 3586 3587 3588 3589 3590 3591 3592 3593 3594 3595 3596 3597 3598 3599 3600 3901 3902 3903 3904 3905 3906 3907 3908 3909 3910 3911 3912 3913 3914 3915 3916 3917 3918 3919 3920 3921 3922 3923 3924 3925 3926 3927 3928 3929 3930 3931 3932 3933 3934 3935 3936 3937 3938 3939 3940 3941 3942 3943 3944 3945 3946 3947 3948 3949 3950 3951 3952 3953 3954 3955 3956 3957 3958 3959 3960 4261 4262 4263 4264 4265 4266 4267 4268 4269 4270 4271 4272 4273 4274 4275 4276 4277 4278 4279 4280 4281 4282 4283 4284 4285 4286 4287 4288 4289 4290 4291 4292 4293 4294 4295 4296 4297 4298 4299 4300 4301 4302 4303 4304 4305 4306 4307 4308 4309 4310 4311 4312 4313 4314 4315 4316 4317 4318 4319 4320 4621 4622 4623 4624 4625 4626 4627 4628 4629 4630 4631 4632 4633 4634 4635 4636 4637 4638 4639 4640 4641 4642 4643 4644 4645 4646 4647 4648 4649 4650 4651 4652 4653 4654 4655 4656 4657 4658 4659 4660 4661 4662 4663 4664 4665 4666 4667 4668 4669 4670 4671 4672 4673 4674 4675 4676 4677 4678 4679 4680 4981 4982 4983 4984 4985 4986 4987 4988 4989 4990 4991 4992 4993 4994 4995 4996 4997 4998 4999 5000 5001 5002 5003 5004 5005 5006 5007 5008 5009 5010 5011 5012 5013 5014 5015 5016 5017 5018 5019 5020 5021 5022 5023 5024 5025 5026 5027 5028 5029 5030 5031 5032 5033 5034 5035 5036 5037 5038 5039 5040 5341 5342 5343 5344 5345 5346 5347 5348 5349 5350 5351 5352 5353 5354 5355 5356 5357 5358 5359 5360 5361 5362 5363 5364 5365 5366 5367 5368 5369 5370 5371 5372 5373 5374 5375 5376 5377 5378 5379 5380 5381 5382 5383 5384 5385 5386 5387 5388 5389 5390 5391 5392 5393 5394 5395 5396 5397 5398 5399 5400 5701 5702 5703 5704 5705 5706 5707 5708 5709 5710 5711 5712 5713 5714 5715 5716 5717 5718 5719 5720 5721 5722 5723 5724 5725 5726 5727 5728 5729 5730 5731 5732 5733 5734 5735 5736 5737 5738 5739 5740 5741 5742 5743 5744 5745 5746 5747 5748 5749 5750 5751 5752 5753 5754 5755 5756 5757 5758 5759 5760 6061 6062 6063 6064 6065 6066 6067 6068 6069 6070 6071 6072 6073 6074 6075 6076 6077 6078 6079 6080 6081 6082 6083 6084 6085 6086 6087 6088 6089 6090 6091 6092 6093 6094 6095 6096 6097 6098 6099 6100 6101 6102 6103 6104 6105 6106 6107 6108 6109 6110 6111 6112 6113 6114 6115 6116 6117 6118 6119 6120 6421 6422 6423 6424 6425 6426 6427 6428 6429 6430 6431 6432 6433 6434 6435 6436 6437 6438 6439 6440 6441 6442 6443 6444 6445 6446 6447 6448 6449 6450 6451 6452 6453 6454 6455 6456 6457 6458 6459 6460 6461 6462 6463 6464 6465 6466 6467 6468 6469 6470 6471 6472 6473 6474 6475 6476 6477 6478 6479 6480 6781 6782 6783 6784 6785 6786 6787 6788 6789 6790 6791 6792 6793 6794 6795 6796 6797 6798 6799 6800 6801 6802 6803 6804 6805 6806 6807 6808 6809 6810 6811 6812 6813 6814 6815 6816 6817 6818 6819 6820 6821 6822 6823 6824 6825 6826 6827 6828 6829 6830 6831 6832 6833 6834 6835 6836 6837 6838 6839 6840 7141 7142 7143 7144 7145 7146 7147 7148 7149 7150 7151 7152 7153 7154 7155 7156 7157 7158 7159 7160 7161 7162 7163 7164 7165 7166 7167 7168 7169 7170 7171 7172 7173 7174 7175 7176 7177 7178 7179 7180 7181 7182 7183 7184 7185 7186 7187 7188 7189 7190 7191 7192 7193 7194 7195 7196 7197 7198 7199 7200 7501 7502 7503 7504 7505 7506 7507 7508 7509 7510 7511 7512 7513 7514 7515 7516 7517 7518 7519 7520 7521 7522 7523 7524 7525 7526 7527 7528 7529 7530 7531 7532 7533 7534 7535 7536 7537 7538 7539 7540 7541 7542 7543 7544 7545 7546 7547 7548 7549 7550 7551 7552 7553 7554 7555 7556 7557 7558 7559 7560 7861 7862 7863 7864 7865 7866 7867 7868 7869 7870 7871 7872 7873 7874 7875 7876 7877 7878 7879 7880 7881 7882 7883 7884 7885 7886 7887 7888 7889 7890 7891 7892 7893 7894 7895 7896 7897 7898 7899 7900 7901 7902 7903 7904 7905 7906 7907 7908 7909 7910 7911 7912 7913 7914 7915 7916 7917 7918 7919 7920 8221 8222 8223 8224 8225 8226 8227 8228 8229 8230 8231 8232 8233 8234 8235 8236 8237 8238 8239 8240 8241 8242 8243 8244 8245 8246 8247 8248 8249 8250 8251 8252 8253 8254 8255 8256 8257 8258 8259 8260 8261 8262 8263 8264 8265 8266 8267 8268 8269 8270 8271 8272 8273 8274 8275 8276 8277 8278 8279 8280 8581 8582 8583 8584 8585 8586 8587 8588 8589 8590 8591 8592 8593 8594 8595 8596 8597 8598 8599 8600 8601 8602 8603 8604 8605 8606 8607 8608 8609 8610 8611 8612 8613 8614 8615 8616 8617 8618 8619 8620 8621 8622 8623 8624 8625 8626 8627 8628 8629 8630 8631 8632 8633 8634 8635 8636 8637 8638 8639 8640 8941 8942 8943 8944 8945 8946 8947 8948 8949 8950 8951 8952 8953 8954 8955 8956 8957 8958 8959 8960 8961 8962 8963 8964 8965 8966 8967 8968 8969 8970 8971 8972 8973 8974 8975 8976 8977 8978 8979 8980 8981 8982 8983 8984 8985 8986 8987 8988 8989 8990 8991 8992 8993 8994 8995 8996 8997 8998 8999 9000 9301 9302 9303 9304 9305 9306 9307 9308 9309 9310 9311 9312 9313 9314 9315 9316 9317 9318 9319 9320 9321 9322 9323 9324 9325 9326 9327 9328 9329 9330 9331 9332 9333 9334 9335 9336 9337 9338 9339 9340 9341 9342 9343 9344 9345 9346 9347 9348 9349 9350 9351 9352 9353 9354 9355 9356 9357 9358 9359 9360 9661 9662 9663 9664 9665 9666 9667 9668 9669 9670 9671 9672 9673 9674 9675 9676 9677 9678 9679 9680 9681 9682 9683 9684 9685 9686 9687 9688 9689 9690 9691 9692 9693 9694 9695 9696 9697 9698 9699 9700 9701 9702 9703 9704 9705 9706 9707 9708 9709 9710 9711 9712 9713 9714 9715 9716 9717 9718 9719 9720 10021 10022 10023 10024 10025 10026 10027 10028 10029 10030 10031 10032 10033 10034 10035 10036 10037 10038 10039 10040 10041 10042 10043 10044 10045 10046 10047 10048 10049 10050 10051 10052 10053 10054 10055 10056 10057 10058 10059 10060 10061 10062 10063 10064 10065 10066 10067 10068 10069 10070 10071 10072 10073 10074 10075 10076 10077 10078 10079 10080 10381 10382 10383 10384 10385 10386 10387 10388 10389 10390 10391 10392 10393 10394 10395 10396 10397 10398 10399 10400 10401 10402 10403 10404 10405 10406 10407 10408 10409 10410 10411 10412 10413 10414 10415 10416 10417 10418 10419 10420 10421 10422 10423 10424 10425 10426 10427 10428 10429 10430 10431 10432 10433 10434 10435 10436 10437 10438 10439 10440 10741 10742 10743 10744 10745 10746 10747 10748 10749 10750 10751 10752 10753 10754 10755 10756 10757 10758 10759 10760 10761 10762 10763 10764 10765 10766 10767 10768 10769 10770 10771 10772 10773 10774 10775 10776 10777 10778 10779 10780 10781 10782 10783 10784 10785 10786 10787 10788 10789 10790 10791 10792 10793 10794 10795 10796 10797 10798 10799 10800 11101 11102 11103 11104 11105 11106 11107 11108 11109 11110 11111 11112 11113 11114 11115 11116 11117 11118 11119 11120 11121 11122 11123 11124 11125 11126 11127 11128 11129 11130 11131 11132 11133 11134 11135 11136 11137 11138 11139 11140 11141 11142 11143 11144 11145 11146 11147 11148 11149 11150 11151 11152 11153 11154 11155 11156 11157 11158 11159 11160 11461 11462 11463 11464 11465 11466 11467 11468 11469 11470 11471 11472 11473 11474 11475 11476 11477 11478 11479 11480 11481 11482 11483 11484 11485 11486 11487 11488 11489 11490 11491 11492 11493 11494 11495 11496 11497 11498 11499 11500 11501 11502 11503 11504 11505 11506 11507 11508 11509 11510 11511 11512 11513 11514 11515 11516 11517 11518 11519 11520 11821 11822 11823 11824 11825 11826 11827 11828 11829 11830 11831 11832 11833 11834 11835 11836 11837 11838 11839 11840 11841 11842 11843 11844 11845 11846 11847 11848 11849 11850 11851 11852 11853 11854 11855 11856 11857 11858 11859 11860 11861 11862 11863 11864 11865 11866 11867 11868 11869 11870 11871 11872 11873 11874 11875 11876 11877 11878 11879 11880 12181 12182 12183 12184 12185 12186 12187 12188 12189 12190 12191 12192 12193 12194 12195 12196 12197 12198 12199 12200 12201 12202 12203 12204 12205 12206 12207 12208 12209 12210 12211 12212 12213 12214 12215 12216 12217 12218 12219 12220 12221 12222 12223 12224 12225 12226 12227 12228 12229 12230 12231 12232 12233 12234 12235 12236 12237 12238 12239 12240 12541 12542 12543 12544 12545 12546 12547 12548 12549 12550 12551 12552 12553 12554 12555 12556 12557 12558 12559 12560 12561 12562 12563 12564 12565 12566 12567 12568 12569 12570 12571 12572 12573 12574 12575 12576 12577 12578 12579 12580 12581 12582 12583 12584 12585 12586 12587 12588 12589 12590 12591 12592 12593 12594 12595 12596 12597 12598 12599 12600 12901 12902 12903 12904 12905 12906 12907 12908 12909 12910 12911 12912 12913 12914 12915 12916 12917 12918 12919 12920 12921 12922 12923 12924 12925 12926 12927 12928 12929 12930 12931 12932 12933 12934 12935 12936 12937 12938 12939 12940 12941 12942 12943 12944 12945 12946 12947 12948 12949 12950 12951 12952 12953 12954 12955 12956 12957 12958 12959 12960 13261 13262 13263 13264 13265 13266 13267 13268 13269 13270 13271 13272 13273 13274 13275 13276 13277 13278 13279 13280 13281 13282 13283 13284 13285 13286 13287 13288 13289 13290 13291 13292 13293 13294 13295 13296 13297 13298 13299 13300 13301 13302 13303 13304 13305 13306 13307 13308 13309 13310 13311 13312 13313 13314 13315 13316 13317 13318 13319 13320 13621 13622 13623 13624 13625 13626 13627 13628 13629 13630 13631 13632 13633 13634 13635 13636 13637 13638 13639 13640 13641 13642 13643 13644 13645 13646 13647 13648 13649 13650 13651 13652 13653 13654 13655 13656 13657 13658 13659 13660 13661 13662 13663 13664 13665 13666 13667 13668 13669 13670 13671 13672 13673 13674 13675 13676 13677 13678 13679 13680 13981 13982 13983 13984 13985 13986 13987 13988 13989 13990 13991 13992 13993 13994 13995 13996 13997 13998 13999 14000 14001 14002 14003 14004 14005 14006 14007 14008 14009 14010 14011 14012 14013 14014 14015 14016 14017 14018 14019 14020 14021 14022 14023 14024 14025 14026 14027 14028 14029 14030 14031 14032 14033 14034 14035 14036 14037 14038 14039 14040 14341 14342 14343 14344 14345 14346 14347 14348 14349 14350 14351 14352 14353 14354 14355 14356 14357 14358 14359 14360 14361 14362 14363 14364 14365 14366 14367 14368 14369 14370 14371 14372 14373 14374 14375 14376 14377 14378 14379 14380 14381 14382 14383 14384 14385 14386 14387 14388 14389 14390 14391 14392 14393 14394 14395 14396 14397 14398 14399 14400 14701 14702 14703 14704 14705 14706 14707 14708 14709 14710 14711 14712 14713 14714 14715 14716 14717 14718 14719 14720 14721 14722 14723 14724 14725 14726 14727 14728 14729 14730 14731 14732 14733 14734 14735 14736 14737 14738 14739 14740 14741 14742 14743 14744 14745 14746 14747 14748 14749 14750 14751 14752 14753 14754 14755 14756 14757 14758 14759 14760 15061 15062 15063 15064 15065 15066 15067 15068 15069 15070 15071 15072 15073 15074 15075 15076 15077 15078 15079 15080 15081 15082 15083 15084 15085 15086 15087 15088 15089 15090 15091 15092 15093 15094 15095 15096 15097 15098 15099 15100 15101 15102 15103 15104 15105 15106 15107 15108 15109 15110 15111 15112 15113 15114 15115 15116 15117 15118 15119 15120 15421 15422 15423 15424 15425 15426 15427 15428 15429 15430 15431 15432 15433 15434 15435 15436 15437 15438 15439 15440 15441 15442 15443 15444 15445 15446 15447 15448 15449 15450 15451 15452 15453 15454 15455 15456 15457 15458 15459 15460 15461 15462 15463 15464 15465 15466 15467 15468 15469 15470 15471 15472 15473 15474 15475 15476 15477 15478 15479 15480 15781 15782 15783 15784 15785 15786 15787 15788 15789 15790 15791 15792 15793 15794 15795 15796 15797 15798 15799 15800 15801 15802 15803 15804 15805 15806 15807 15808 15809 15810 15811 15812 15813 15814 15815 15816 15817 15818 15819 15820 15821 15822 15823 15824 15825 15826 15827 15828 15829 15830 15831 15832 15833 15834 15835 15836 15837 15838 15839 15840 16141 16142 16143 16144 16145 16146 16147 16148 16149 16150 16151 16152 16153 16154 16155 16156 16157 16158 16159 16160 16161 16162 16163 16164 16165 16166 16167 16168 16169 16170 16171 16172 16173 16174 16175 16176 16177 16178 16179 16180 16181 16182 16183 16184 16185 16186 16187 16188 16189 16190 16191 16192 16193 16194 16195 16196 16197 16198 16199 16200 16501 16502 16503 16504 16505 16506 16507 16508 16509 16510 16511 16512 16513 16514 16515 16516 16517 16518 16519 16520 16521 16522 16523 16524 16525 16526 16527 16528 16529 16530 16531 16532 16533 16534 16535 16536 16537 16538 16539 16540 16541 16542 16543 16544 16545 16546 16547 16548 16549 16550 16551 16552 16553 16554 16555 16556 16557 16558 16559 16560 16861 16862 16863 16864 16865 16866 16867 16868 16869 16870 16871 16872 16873 16874 16875 16876 16877 16878 16879 16880 16881 16882 16883 16884 16885 16886 16887 16888 16889 16890 16891 16892 16893 16894 16895 16896 16897 16898 16899 16900 16901 16902 16903 16904 16905 16906 16907 16908 16909 16910 16911 16912 16913 16914 16915 16916 16917 16918 16919 16920 17221 17222 17223 17224 17225 17226 17227 17228 17229 17230 17231 17232 17233 17234 17235 17236 17237 17238 17239 17240 17241 17242 17243 17244 17245 17246 17247 17248 17249 17250 17251 17252 17253 17254 17255 17256 17257 17258 17259 17260 17261 17262 17263 17264 17265 17266 17267 17268 17269 17270 17271 17272 17273 17274 17275 17276 17277 17278 17279 17280 17581 17582 17583 17584 17585 17586 17587 17588 17589 17590 17591 17592 17593 17594 17595 17596 17597 17598 17599 17600 17601 17602 17603 17604 17605 17606 17607 17608 17609 17610 17611 17612 17613 17614 17615 17616 17617 17618 17619 17620 17621 17622 17623 17624 17625 17626 17627 17628 17629 17630 17631 17632 17633 17634 17635 17636 17637 17638 17639 17640 17941 17942 17943 17944 17945 17946 17947 17948 17949 17950 17951 17952 17953 17954 17955 17956 17957 17958 17959 17960 17961 17962 17963 17964 17965 17966 17967 17968 17969 17970 17971 17972 17973 17974 17975 17976 17977 17978 17979 17980 17981 17982 17983 17984 17985 17986 17987 17988 17989 17990 17991 17992 17993 17994 17995 17996 17997 17998 17999 18000 18301 18302 18303 18304 18305 18306 18307 18308 18309 18310 18311 18312 18313 18314 18315 18316 18317 18318 18319 18320 18321 18322 18323 18324 18325 18326 18327 18328 18329 18330 18331 18332 18333 18334 18335 18336 18337 18338 18339 18340 18341 18342 18343 18344 18345 18346 18347 18348 18349 18350 18351 18352 18353 18354 18355 18356 18357 18358 18359 18360 18661 18662 18663 18664 18665 18666 18667 18668 18669 18670 18671 18672 18673 18674 18675 18676 18677 18678 18679 18680 18681 18682 18683 18684 18685 18686 18687 18688 18689 18690 18691 18692 18693 18694 18695 18696 18697 18698 18699 18700 18701 18702 18703 18704 18705 18706 18707 18708 18709 18710 18711 18712 18713 18714 18715 18716 18717 18718 18719 18720 19021 19022 19023 19024 19025 19026 19027 19028 19029 19030 19031 19032 19033 19034 19035 19036 19037 19038 19039 19040 19041 19042 19043 19044 19045 19046 19047 19048 19049 19050 19051 19052 19053 19054 19055 19056 19057 19058 19059 19060 19061 19062 19063 19064 19065 19066 19067 19068 19069 19070 19071 19072 19073 19074 19075 19076 19077 19078 19079 19080 19381 19382 19383 19384 19385 19386 19387 19388 19389 19390 19391 19392 19393 19394 19395 19396 19397 19398 19399 19400 19401 19402 19403 19404 19405 19406 19407 19408 19409 19410 19411 19412 19413 19414 19415 19416 19417 19418 19419 19420 19421 19422 19423 19424 19425 19426 19427 19428 19429 19430 19431 19432 19433 19434 19435 19436 19437 19438 19439 19440 19741 19742 19743 19744 19745 19746 19747 19748 19749 19750 19751 19752 19753 19754 19755 19756 19757 19758 19759 19760 19761 19762 19763 19764 19765 19766 19767 19768 19769 19770 19771 19772 19773 19774 19775 19776 19777 19778 19779 19780 19781 19782 19783 19784 19785 19786 19787 19788 19789 19790 19791 19792 19793 19794 19795 19796 19797 19798 19799 19800 20101 20102 20103 20104 20105 20106 20107 20108 20109 20110 20111 20112 20113 20114 20115 20116 20117 20118 20119 20120 20121 20122 20123 20124 20125 20126 20127 20128 20129 20130 20131 20132 20133 20134 20135 20136 20137 20138 20139 20140 20141 20142 20143 20144 20145 20146 20147 20148 20149 20150 20151 20152 20153 20154 20155 20156 20157 20158 20159 20160 20461 20462 20463 20464 20465 20466 20467 20468 20469 20470 20471 20472 20473 20474 20475 20476 20477 20478 20479 20480 20481 20482 20483 20484 20485 20486 20487 20488 20489 20490 20491 20492 20493 20494 20495 20496 20497 20498 20499 20500 20501 20502 20503 20504 20505 20506 20507 20508 20509 20510 20511 20512 20513 20514 20515 20516 20517 20518 20519 20520 20821 20822 20823 20824 20825 20826 20827 20828 20829 20830 20831 20832 20833 20834 20835 20836 20837 20838 20839 20840 20841 20842 20843 20844 20845 20846 20847 20848 20849 20850 20851 20852 20853 20854 20855 20856 20857 20858 20859 20860 20861 20862 20863 20864 20865 20866 20867 20868 20869 20870 20871 20872 20873 20874 20875 20876 20877 20878 20879 20880 21181 21182 21183 21184 21185 21186 21187 21188 21189 21190 21191 21192 21193 21194 21195 21196 21197 21198 21199 21200 21201 21202 21203 21204 21205 21206 21207 21208 21209 21210 21211 21212 21213 21214 21215 21216 21217 21218 21219 21220 21221 21222 21223 21224 21225 21226 21227 21228 21229 21230 21231 21232 21233 21234 21235 21236 21237 21238 21239 21240 21541 21542 21543 21544 21545 21546 21547 21548 21549 21550 21551 21552 21553 21554 21555 21556 21557 21558 21559 21560 21561 21562 21563 21564 21565 21566 21567 21568 21569 21570 21571 21572 21573 21574 21575 21576 21577 21578 21579 21580 21581 21582 21583 21584 21585 21586 21587 21588 21589 21590 21591 21592 21593 21594 21595 21596 21597 21598 21599 21600 21901 21902 21903 21904 21905 21906 21907 21908 21909 21910 21911 21912 2191