# vtk DataFile Version 3.0
This file was generated by ESMC 
ASCII
DATASET UNSTRUCTURED_GRID
POINTS 10980 double
0.0130885 0.0226699 -0.999657
0.0218097 0.0377755 -0.999048
0.0305243 0.0528696 -0.998135
0.0392295 0.0679476 -0.996917
0.0479229 0.0830049 -0.995396
0.0566016 0.0980369 -0.993572
0.0652631 0.113039 -0.991445
0.0739047 0.128007 -0.989016
0.0825238 0.142935 -0.986286
0.0911178 0.157821 -0.983255
0.099684 0.172658 -0.979925
0.10822 0.187442 -0.976296
0.116723 0.20217 -0.97237
0.12519 0.216835 -0.968148
0.133619 0.231435 -0.96363
0.142008 0.245965 -0.95882
0.150353 0.260419 -0.953717
0.158652 0.274794 -0.948324
0.166903 0.289085 -0.942641
0.175104 0.303288 -0.936672
0.183251 0.317399 -0.930418
0.191342 0.331414 -0.92388
0.199375 0.345327 -0.91706
0.207347 0.359135 -0.909961
0.215256 0.372834 -0.902585
0.223099 0.386419 -0.894934
0.230874 0.399886 -0.887011
0.238579 0.413232 -0.878817
0.246212 0.426451 -0.870356
0.253769 0.439541 -0.861629
0.261249 0.452497 -0.85264
0.26865 0.465315 -0.843391
0.275968 0.477991 -0.833886
0.283203 0.490522 -0.824126
0.290351 0.502904 -0.814116
0.297411 0.515132 -0.803857
0.304381 0.527203 -0.793353
0.311257 0.539113 -0.782608
0.318039 0.55086 -0.771625
0.324724 0.562439 -0.760406
0.33131 0.573846 -0.748956
0.337795 0.585078 -0.737277
0.344177 0.596133 -0.725374
0.350455 0.607005 -0.71325
0.356625 0.617693 -0.700909
0.362687 0.628193 -0.688355
0.368639 0.638501 -0.67559
0.374478 0.648615 -0.66262
0.380203 0.658531 -0.649448
0.385812 0.668246 -0.636078
0.391304 0.677759 -0.622515
0.396677 0.687064 -0.608761
0.401928 0.69616 -0.594823
0.407058 0.705045 -0.580703
0.412063 0.713714 -0.566406
0.416943 0.722166 -0.551937
0.421696 0.730398 -0.5373
0.42632 0.738408 -0.522499
0.430815 0.746193 -0.507538
0.435178 0.75375 -0.492424
0.439409 0.761078 -0.477159
0.443505 0.768174 -0.461749
0.447467 0.775036 -0.446198
0.451293 0.781662 -0.430511
0.454981 0.78805 -0.414693
0.45853 0.794197 -0.398749
0.46194 0.800103 -0.382683
0.465209 0.805765 -0.366501
0.468336 0.811182 -0.350207
0.471321 0.816351 -0.333807
0.474162 0.821272 -0.317305
0.476858 0.825943 -0.300706
0.47941 0.830362 -0.284015
0.481815 0.834528 -0.267238
0.484074 0.83844 -0.25038
0.486185 0.842097 -0.233445
0.488148 0.845497 -0.21644
0.489962 0.84864 -0.199368
0.491627 0.851524 -0.182236
0.493143 0.854148 -0.165048
0.494508 0.856513 -0.147809
0.495722 0.858616 -0.130526
0.496786 0.860458 -0.113203
0.497698 0.862038 -0.0958458
0.498459 0.863356 -0.0784591
0.499067 0.86441 -0.0610485
0.499524 0.865201 -0.0436194
0.499829 0.865729 -0.0261769
0.499981 0.865992 -0.00872654
0.499981 0.865992 0.00872654
0.499829 0.865729 0.0261769
0.499524 0.865201 0.0436194
0.499067 0.86441 0.0610485
0.498459 0.863356 0.0784591
0.497698 0.862038 0.0958458
0.496786 0.860458 0.113203
0.495722 0.858616 0.130526
0.494508 0.856513 0.147809
0.493143 0.854148 0.165048
0.491627 0.851524 0.182236
0.489962 0.84864 0.199368
0.488148 0.845497 0.21644
0.486185 0.842097 0.233445
0.484074 0.83844 0.25038
0.481815 0.834528 0.267238
0.47941 0.830362 0.284015
0.476858 0.825943 0.300706
0.474162 0.821272 0.317305
0.471321 0.816351 0.333807
0.468336 0.811182 0.350207
0.465209 0.805765 0.366501
0.46194 0.800103 0.382683
0.45853 0.794197 0.398749
0.454981 0.78805 0.414693
0.451293 0.781662 0.430511
0.447467 0.775036 0.446198
0.443505 0.768174 0.461749
0.439409 0.761078 0.477159
0.435178 0.75375 0.492424
0.430815 0.746193 0.507538
0.42632 0.738408 0.522499
0.421696 0.730398 0.5373
0.416943 0.722166 0.551937
0.412063 0.713714 0.566406
0.407058 0.705045 0.580703
0.401928 0.69616 0.594823
0.396677 0.687064 0.608761
0.391304 0.677759 0.622515
0.385812 0.668246 0.636078
0.380203 0.658531 0.649448
0.374478 0.648615 0.66262
0.368639 0.638501 0.67559
0.362687 0.628193 0.688355
0.356625 0.617693 0.700909
0.350455 0.607005 0.71325
0.344177 0.596133 0.725374
0.337795 0.585078 0.737277
0.33131 0.573846 0.748956
0.324724 0.562439 0.760406
0.318039 0.55086 0.771625
0.311257 0.539113 0.782608
0.304381 0.527203 0.793353
0.297411 0.515132 0.803857
0.290351 0.502904 0.814116
0.283203 0.490522 0.824126
0.275968 0.477991 0.833886
0.26865 0.465315 0.843391
0.261249 0.452497 0.85264
0.253769 0.439541 0.861629
0.246212 0.426451 0.870356
0.238579 0.413232 0.878817
0.230874 0.399886 0.887011
0.223099 0.386419 0.894934
0.215256 0.372834 0.902585
0.207347 0.359135 0.909961
0.199375 0.345327 0.91706
0.191342 0.331414 0.92388
0.183251 0.317399 0.930418
0.175104 0.303288 0.936672
0.166903 0.289085 0.942641
0.158652 0.274794 0.948324
0.150353 0.260419 0.953717
0.142008 0.245965 0.95882
0.133619 0.231435 0.96363
0.12519 0.216835 0.968148
0.116723 0.20217 0.97237
0.10822 0.187442 0.976296
0.099684 0.172658 0.979925
0.0911178 0.157821 0.983255
0.0825238 0.142935 0.986286
0.0739047 0.128007 0.989016
0.0652631 0.113039 0.991445
0.0566016 0.0980369 0.993572
0.0479229 0.0830049 0.995396
0.0392295 0.0679476 0.996917
0.0305243 0.0528696 0.998135
0.0218097 0.0377755 0.999048
0.0130885 0.0226699 0.999657
0.0126908 0.0228949 -0.999657
0.0122893 0.0231129 -0.999657
0.0118841 0.0233238 -0.999657
0.0114752 0.0235277 -0.999657
0.0110629 0.0237244 -0.999657
0.0106471 0.0239138 -0.999657
0.0102281 0.024096 -0.999657
0.00980606 0.0242708 -0.999657
0.00938098 0.0244383 -0.999657
0.00895304 0.0245983 -0.999657
0.00852238 0.0247508 -0.999657
0.00808912 0.0248958 -0.999657
0.0076534 0.0250331 -0.999657
0.00721534 0.0251629 -0.999657
0.00677509 0.025285 -0.999657
0.00633278 0.0253994 -0.999657
0.00588853 0.025506 -0.999657
0.00544249 0.0256049 -0.999657
0.0049948 0.025696 -0.999657
0.00454558 0.0257793 -0.999657
0.00409498 0.0258547 -0.999657
0.00364313 0.0259222 -0.999657
0.00319017 0.0259818 -0.999657
0.00273624 0.0260335 -0.999657
0.00228147 0.0260773 -0.999657
0.00182601 0.0261132 -0.999657
0.00137 0.0261411 -0.999657
0.000913562 0.026161 -0.999657
0.000456851 0.026173 -0.999657
1.60288e-18 0.0261769 -0.999657
-0.000456851 0.026173 -0.999657
-0.000913562 0.026161 -0.999657
-0.00137 0.0261411 -0.999657
-0.00182601 0.0261132 -0.999657
-0.00228147 0.0260773 -0.999657
-0.00273624 0.0260335 -0.999657
-0.00319017 0.0259818 -0.999657
-0.00364313 0.0259222 -0.999657
-0.00409498 0.0258547 -0.999657
-0.00454558 0.0257793 -0.999657
-0.0049948 0.025696 -0.999657
-0.00544249 0.0256049 -0.999657
-0.00588853 0.025506 -0.999657
-0.00633278 0.0253994 -0.999657
-0.00677509 0.025285 -0.999657
-0.00721534 0.0251629 -0.999657
-0.0076534 0.0250331 -0.999657
-0.00808912 0.0248958 -0.999657
-0.00852238 0.0247508 -0.999657
-0.00895304 0.0245983 -0.999657
-0.00938098 0.0244383 -0.999657
-0.00980606 0.0242708 -0.999657
-0.0102281 0.024096 -0.999657
-0.0106471 0.0239138 -0.999657
-0.0110629 0.0237244 -0.999657
-0.0114752 0.0235277 -0.999657
-0.0118841 0.0233238 -0.999657
-0.0122893 0.0231129 -0.999657
-0.0126908 0.0228949 -0.999657
0.0211471 0.0381504 -0.999048
0.0204781 0.0385136 -0.999048
0.0198028 0.0388652 -0.999048
0.0191215 0.0392048 -0.999048
0.0184343 0.0395326 -0.999048
0.0177416 0.0398483 -0.999048
0.0170435 0.0401519 -0.999048
0.0163401 0.0404432 -0.999048
0.0156318 0.0407222 -0.999048
0.0149187 0.0409888 -0.999048
0.0142011 0.0412429 -0.999048
0.0134791 0.0414845 -0.999048
0.0127531 0.0417134 -0.999048
0.0120231 0.0419296 -0.999048
0.0112895 0.0421331 -0.999048
0.0105525 0.0423237 -0.999048
0.00981223 0.0425014 -0.999048
0.00906898 0.0426662 -0.999048
0.00832297 0.042818 -0.999048
0.00757443 0.0429567 -0.999048
0.00682358 0.0430824 -0.999048
0.00607065 0.0431949 -0.999048
0.00531587 0.0432943 -0.999048
0.00455947 0.0433804 -0.999048
0.00380168 0.0434534 -0.999048
0.00304273 0.0435131 -0.999048
0.00228286 0.0435596 -0.999048
0.00152229 0.0435928 -0.999048
0.000761263 0.0436127 -0.999048
2.67092e-18 0.0436194 -0.999048
-0.000761263 0.0436127 -0.999048
-0.00152229 0.0435928 -0.999048
-0.00228286 0.0435596 -0.999048
-0.00304273 0.0435131 -0.999048
-0.00380168 0.0434534 -0.999048
-0.00455947 0.0433804 -0.999048
-0.00531587 0.0432943 -0.999048
-0.00607065 0.0431949 -0.999048
-0.00682358 0.0430824 -0.999048
-0.00757443 0.0429567 -0.999048
-0.00832297 0.042818 -0.999048
-0.00906898 0.0426662 -0.999048
-0.00981223 0.0425014 -0.999048
-0.0105525 0.0423237 -0.999048
-0.0112895 0.0421331 -0.999048
-0.0120231 0.0419296 -0.999048
-0.0127531 0.0417134 -0.999048
-0.0134791 0.0414845 -0.999048
-0.0142011 0.0412429 -0.999048
-0.0149187 0.0409888 -0.999048
-0.0156318 0.0407222 -0.999048
-0.0163401 0.0404432 -0.999048
-0.0170435 0.0401519 -0.999048
-0.0177416 0.0398483 -0.999048
-0.0184343 0.0395326 -0.999048
-0.0191215 0.0392048 -0.999048
-0.0198028 0.0388652 -0.999048
-0.0204781 0.0385136 -0.999048
-0.0211471 0.0381504 -0.999048
0.0295969 0.0533943 -0.998135
0.0286606 0.0539027 -0.998135
0.0277155 0.0543946 -0.998135
0.0267619 0.0548701 -0.998135
0.0258002 0.0553288 -0.998135
0.0248307 0.0557706 -0.998135
0.0238536 0.0561955 -0.998135
0.0228692 0.0566032 -0.998135
0.0218778 0.0569937 -0.998135
0.0208798 0.0573669 -0.998135
0.0198755 0.0577225 -0.998135
0.018865 0.0580606 -0.998135
0.0178489 0.058381 -0.998135
0.0168273 0.0586836 -0.998135
0.0158005 0.0589684 -0.998135
0.014769 0.0592351 -0.998135
0.0137329 0.0594839 -0.998135
0.0126927 0.0597145 -0.998135
0.0116486 0.0599269 -0.998135
0.010601 0.0601211 -0.998135
0.0095501 0.0602969 -0.998135
0.00849631 0.0604544 -0.998135
0.00743995 0.0605935 -0.998135
0.00638131 0.0607141 -0.998135
0.00532073 0.0608162 -0.998135
0.00425853 0.0608998 -0.998135
0.00319503 0.0609649 -0.998135
0.00213056 0.0610114 -0.998135
0.00106544 0.0610392 -0.998135
3.73814e-18 0.0610485 -0.998135
-0.00106544 0.0610392 -0.998135
-0.00213056 0.0610114 -0.998135
-0.00319503 0.0609649 -0.998135
-0.00425853 0.0608998 -0.998135
-0.00532073 0.0608162 -0.998135
-0.00638131 0.0607141 -0.998135
-0.00743995 0.0605935 -0.998135
-0.00849631 0.0604544 -0.998135
-0.0095501 0.0602969 -0.998135
-0.010601 0.0601211 -0.998135
-0.0116486 0.0599269 -0.998135
-0.0126927 0.0597145 -0.998135
-0.0137329 0.0594839 -0.998135
-0.014769 0.0592351 -0.998135
[...]
CELL_DATA 10740
SCALARS _ELEM_NUM double 1
LOOKUP_TABLE default
61 62 63 64 65 66 67 68 69 70 71 72 73 74 75 76 77 78 79 80 81 82 83 84 85 86 87 88 89 90 91 92 93 94 95 96 97 98 99 100 101 102 103 104 105 106 107 108 109 110 111 112 113 114 115 116 117 118 119 120 421 422 423 424 425 426 427 428 429 430 431 432 433 434 435 436 437 438 439 440 441 442 443 444 445 446 447 448 449 450 451 452 453 454 455 456 457 458 459 460 461 462 463 464 465 466 467 468 469 470 471 472 473 474 475 476 477 478 479 480 781 782 783 784 785 786 787 788 789 790 791 792 793 794 795 796 797 798 799 800 801 802 803 804 805 806 807 808 809 810 811 812 813 814 815 816 817 818 819 820 821 822 823 824 825 826 827 828 829 830 831 832 833 834 835 836 837 838 839 840 1141 1142 1143 1144 1145 1146 1147 1148 1149 1150 1151 1152 1153 1154 1155 1156 1157 1158 1159 1160 1161 1162 1163 1164 1165 1166 1167 1168 1169 1170 1171 1172 1173 1174 1175 1176 1177 1178 1179 1180 1181 1182 1183 1184 1185 1186 1187 1188 1189 1190 1191 1192 1193 1194 1195 1196 1197 1198 1199 1200 1501 1502 1503 1504 1505 1506 1507 1508 1509 1510 1511 1512 1513 1514 1515 1516 1517 1518 1519 1520 1521 1522 1523 1524 1525 1526 1527 1528 1529 1530 1531 1532 1533 1534 1535 1536 1537 1538 1539 1540 1541 1542 1543 1544 1545 1546 1547 1548 1549 1550 1551 1552 1553 1554 1555 1556 1557 1558 1559 1560 1861 1862 1863 1864 1865 1866 1867 1868 1869 1870 1871 1872 1873 1874 1875 1876 1877 1878 1879 1880 1881 1882 1883 1884 1885 1886 1887 1888 1889 1890 1891 1892 1893 1894 1895 1896 1897 1898 1899 1900 1901 1902 1903 1904 1905 1906 1907 1908 1909 1910 1911 1912 1913 1914 1915 1916 1917 1918 1919 1920 2221 2222 2223 2224 2225 2226 2227 2228 2229 2230 2231 2232 2233 2234 2235 2236 2237 2238 2239 2240 2241 2242 2243 2244 2245 2246 2247 2248 2249 2250 2251 2252 2253 2254 2255 2256 2257 2258 2259 2260 2261 2262 2263 2264 2265 2266 2267 2268 2269 2270 2271 2272 2273 2274 2275 2276 2277 2278 2279 2280 2581 2582 2583 2584 2585 2586 2587 2588 2589 2590 2591 2592 2593 2594 2595 2596 2597 2598 2599 2600 2601 2602 2603 2604 2605 2606 2607 2608 2609 2610 2611 2612 2613 2614 2615 2616 2617 2618 2619 2620 2621 2622 2623 2624 2625 2626 2627 2628 2629 2630 2631 2632 2633 2634 2635 2636 2637 2638 2639 2640 2941 2942 2943 2944 2945 2946 2947 2948 2949 2950 2951 2952 2953 2954 2955 2956 2957 2958 2959 2960 2961 2962 2963 2964 2965 2966 2967 2968 2969 2970 2971 2972 2973 2974 2975 2976 2977 2978 2979 2980 2981 2982 2983 2984 2985 2986 2987 2988 2989 2990 2991 2992 2993 2994 2995 2996 2997 2998 2999 3000 3301 3302 3303 3304 3305 3306 3307 3308 3309 3310 3311 3312 3313 3314 3315 3316 3317 3318 3319 3320 3321 3322 3323 3324 3325 3326 3327 3328 3329 3330 3331 3332 3333 3334 3335 3336 3337 3338 3339 3340 3341 3342 3343 3344 3345 3346 3347 3348 3349 3350 3351 3352 3353 3354 3355 3356 3357 3358 3359 3360 3661 3662 3663 3664 3665 3666 3667 3668 3669 3670 3671 3672 3673 3674 3675 3676 3677 3678 3679 3680 3681 3682 3683 3684 3685 3686 3687 3688 3689 3690 3691 3692 3693 3694 3695 3696 3697 3698 3699 3700 3701 3702 3703 3704 3705 3706 3707 3708 3709 3710 3711 3712 3713 3714 3715 3716 3717 3718 3719 3720 4021 4022 4023 4024 4025 4026 4027 4028 4029 4030 4031 4032 4033 4034 4035 4036 4037 4038 4039 4040 4041 4042 4043 4044 4045 4046 4047 4048 4049 4050 4051 4052 4053 4054 4055 4056 4057 4058 4059 4060 4061 4062 4063 4064 4065 4066 4067 4068 4069 4070 4071 4072 4073 4074 4075 4076 4077 4078 4079 4080 4381 4382 4383 4384 4385 4386 4387 4388 4389 4390 4391 4392 4393 4394 4395 4396 4397 4398 4399 4400 4401 4402 4403 4404 4405 4406 4407 4408 4409 4410 4411 4412 4413 4414 4415 4416 4417 4418 4419 4420 4421 4422 4423 4424 4425 4426 4427 4428 4429 4430 4431 4432 4433 4434 4435 4436 4437 4438 4439 4440 4741 4742 4743 4744 4745 4746 4747 4748 4749 4750 4751 4752 4753 4754 4755 4756 4757 4758 4759 4760 4761 4762 4763 4764 4765 4766 4767 4768 4769 4770 4771 4772 4773 4774 4775 4776 4777 4778 4779 4780 4781 4782 4783 4784 4785 4786 4787 4788 4789 4790 4791 4792 4793 4794 4795 4796 4797 4798 4799 4800 5101 5102 5103 5104 5105 5106 5107 5108 5109 5110 5111 5112 5113 5114 5115 5116 5117 5118 5119 5120 5121 5122 5123 5124 5125 5126 5127 5128 5129 5130 5131 5132 5133 5134 5135 5136 5137 5138 5139 5140 5141 5142 5143 5144 5145 5146 5147 5148 5149 5150 5151 5152 5153 5154 5155 5156 5157 5158 5159 5160 5461 5462 5463 5464 5465 5466 5467 5468 5469 5470 5471 5472 5473 5474 5475 5476 5477 5478 5479 5480 5481 5482 5483 5484 5485 5486 5487 5488 5489 5490 5491 5492 5493 5494 5495 5496 5497 5498 5499 5500 5501 5502 5503 5504 5505 5506 5507 5508 5509 5510 5511 5512 5513 5514 5515 5516 5517 5518 5519 5520 5821 5822 5823 5824 5825 5826 5827 5828 5829 5830 5831 5832 5833 5834 5835 5836 5837 5838 5839 5840 5841 5842 5843 5844 5845 5846 5847 5848 5849 5850 5851 5852 5853 5854 5855 5856 5857 5858 5859 5860 5861 5862 5863 5864 5865 5866 5867 5868 5869 5870 5871 5872 5873 5874 5875 5876 5877 5878 5879 5880 6181 6182 6183 6184 6185 6186 6187 6188 6189 6190 6191 6192 6193 6194 6195 6196 6197 6198 6199 6200 6201 6202 6203 6204 6205 6206 6207 6208 6209 6210 6211 6212 6213 6214 6215 6216 6217 6218 6219 6220 6221 6222 6223 6224 6225 6226 6227 6228 6229 6230 6231 6232 6233 6234 6235 6236 6237 6238 6239 6240 6541 6542 6543 6544 6545 6546 6547 6548 6549 6550 6551 6552 6553 6554 6555 6556 6557 6558 6559 6560 6561 6562 6563 6564 6565 6566 6567 6568 6569 6570 6571 6572 6573 6574 6575 6576 6577 6578 6579 6580 6581 6582 6583 6584 6585 6586 6587 6588 6589 6590 6591 6592 6593 6594 6595 6596 6597 6598 6599 6600 6901 6902 6903 6904 6905 6906 6907 6908 6909 6910 6911 6912 6913 6914 6915 6916 6917 6918 6919 6920 6921 6922 6923 6924 6925 6926 6927 6928 6929 6930 6931 6932 6933 6934 6935 6936 6937 6938 6939 6940 6941 6942 6943 6944 6945 6946 6947 6948 6949 6950 6951 6952 6953 6954 6955 6956 6957 6958 6959 6960 7261 7262 7263 7264 7265 7266 7267 7268 7269 7270 7271 7272 7273 7274 7275 7276 7277 7278 7279 7280 7281 7282 7283 7284 7285 7286 7287 7288 7289 7290 7291 7292 7293 7294 7295 7296 7297 7298 7299 7300 7301 7302 7303 7304 7305 7306 7307 7308 7309 7310 7311 7312 7313 7314 7315 7316 7317 7318 7319 7320 7621 7622 7623 7624 7625 7626 7627 7628 7629 7630 7631 7632 7633 7634 7635 7636 7637 7638 7639 7640 7641 7642 7643 7644 7645 7646 7647 7648 7649 7650 7651 7652 7653 7654 7655 7656 7657 7658 7659 7660 7661 7662 7663 7664 7665 7666 7667 7668 7669 7670 7671 7672 7673 7674 7675 7676 7677 7678 7679 7680 7981 7982 7983 7984 7985 7986 7987 7988 7989 7990 7991 7992 7993 7994 7995 7996 7997 7998 7999 8000 8001 8002 8003 8004 8005 8006 8007 8008 8009 8010 8011 8012 8013 8014 8015 8016 8017 8018 8019 8020 8021 8022 8023 8024 8025 8026 8027 8028 8029 8030 8031 8032 8033 8034 8035 8036 8037 8038 8039 8040 8341 8342 8343 8344 8345 8346 8347 8348 8349 8350 8351 8352 8353 8354 8355 8356 8357 8358 8359 8360 8361 8362 8363 8364 8365 8366 8367 8368 8369 8370 8371 8372 8373 8374 8375 8376 8377 8378 8379 8380 8381 8382 8383 8384 8385 8386 8387 8388 8389 8390 8391 8392 8393 8394 8395 8396 8397 8398 8399 8400 8701 8702 8703 8704 8705 8706 8707 8708 8709 8710 8711 8712 8713 8714 8715 8716 8717 8718 8719 8720 8721 8722 8723 8724 8725 8726 8727 8728 8729 8730 8731 8732 8733 8734 8735 8736 8737 8738 8739 8740 8741 8742 8743 8744 8745 8746 8747 8748 8749 8750 8751 8752 8753 8754 8755 8756 8757 8758 8759 8760 9061 9062 9063 9064 9065 9066 9067 9068 9069 9070 9071 9072 9073 9074 9075 9076 9077 9078 9079 9080 9081 9082 9083 9084 9085 9086 9087 9088 9089 9090 9091 9092 9093 9094 9095 9096 9097 9098 9099 9100 9101 9102 9103 9104 9105 9106 9107 9108 9109 9110 9111 9112 9113 9114 9115 9116 9117 9118 9119 9120 9421 9422 9423 9424 9425 9426 9427 9428 9429 9430 9431 9432 9433 9434 9435 9436 9437 9438 9439 9440 9441 9442 9443 9444 9445 9446 9447 9448 9449 9450 9451 9452 9453 9454 9455 9456 9457 9458 9459 9460 9461 9462 9463 9464 9465 9466 9467 9468 9469 9470 9471 9472 9473 9474 9475 9476 9477 9478 9479 9480 9781 9782 9783 9784 9785 9786 9787 9788 9789 9790 9791 9792 9793 9794 9795 9796 9797 9798 9799 9800 9801 9802 9803 9804 9805 9806 9807 9808 9809 9810 9811 9812 9813 9814 9815 9816 9817 9818 9819 9820 9821 9822 9823 9824 9825 9826 9827 9828 9829 9830 9831 9832 9833 9834 9835 9836 9837 9838 9839 9840 10141 10142 10143 10144 10145 10146 10147 10148 10149 10150 10151 10152 10153 10154 10155 10156 10157 10158 10159 10160 10161 10162 10163 10164 10165 10166 10167 10168 10169 10170 10171 10172 10173 10174 10175 10176 10177 10178 10179 10180 10181 10182 10183 10184 10185 10186 10187 10188 10189 10190 10191 10192 10193 10194 10195 10196 10197 10198 10199 10200 10501 10502 10503 10504 10505 10506 10507 10508 10509 10510 10511 10512 10513 10514 10515 10516 10517 10518 10519 10520 10521 10522 10523 10524 10525 10526 10527 10528 10529 10530 10531 10532 10533 10534 10535 10536 10537 10538 10539 10540 10541 10542 10543 10544 10545 10546 10547 10548 10549 10550 10551 10552 10553 10554 10555 10556 10557 10558 10559 10560 10861 10862 10863 10864 10865 10866 10867 10868 10869 10870 10871 10872 10873 10874 10875 10876 10877 10878 10879 10880 10881 10882 10883 10884 10885 10886 10887 10888 10889 10890 10891 10892 10893 10894 10895 10896 10897 10898 10899 10900 10901 10902 10903 10904 10905 10906 10907 10908 10909 10910 10911 10912 10913 10914 10915 10916 10917 10918 10919 10920 11221 11222 11223 11224 11225 11226 11227 11228 11229 11230 11231 11232 11233 11234 11235 11236 11237 11238 11239 11240 11241 11242 11243 11244 11245 11246 11247 11248 11249 11250 11251 11252 11253 11254 11255 11256 11257 11258 11259 11260 11261 11262 11263 11264 11265 11266 11267 11268 11269 11270 11271 11272 11273 11274 11275 11276 11277 11278 11279 11280 11581 11582 11583 11584 11585 11586 11587 11588 11589 11590 11591 11592 11593 11594 11595 11596 11597 11598 11599 11600 11601 11602 11603 11604 11605 11606 11607 11608 11609 11610 11611 11612 11613 11614 11615 11616 11617 11618 11619 11620 11621 11622 11623 11624 11625 11626 11627 11628 11629 11630 11631 11632 11633 11634 11635 11636 11637 11638 11639 11640 11941 11942 11943 11944 11945 11946 11947 11948 11949 11950 11951 11952 11953 11954 11955 11956 11957 11958 11959 11960 11961 11962 11963 11964 11965 11966 11967 11968 11969 11970 11971 11972 11973 11974 11975 11976 11977 11978 11979 11980 11981 11982 11983 11984 11985 11986 11987 11988 11989 11990 11991 11992 11993 11994 11995 11996 11997 11998 11999 12000 12301 12302 12303 12304 12305 12306 12307 12308 12309 12310 12311 12312 12313 12314 12315 12316 12317 12318 12319 12320 12321 12322 12323 12324 12325 12326 12327 12328 12329 12330 12331 12332 12333 12334 12335 12336 12337 12338 12339 12340 12341 12342 12343 12344 12345 12346 12347 12348 12349 12350 12351 12352 12353 12354 12355 12356 12357 12358 12359 12360 12661 12662 12663 12664 12665 12666 12667 12668 12669 12670 12671 12672 12673 12674 12675 12676 12677 12678 12679 12680 12681 12682 12683 12684 12685 12686 12687 12688 12689 12690 12691 12692 12693 12694 12695 12696 12697 12698 12699 12700 12701 12702 12703 12704 12705 12706 12707 12708 12709 12710 12711 12712 12713 12714 12715 12716 12717 12718 12719 12720 13021 13022 13023 13024 13025 13026 13027 13028 13029 13030 13031 13032 13033 13034 13035 13036 13037 13038 13039 13040 13041 13042 13043 13044 13045 13046 13047 13048 13049 13050 13051 13052 13053 13054 13055 13056 13057 13058 13059 13060 13061 13062 13063 13064 13065 13066 13067 13068 13069 13070 13071 13072 13073 13074 13075 13076 13077 13078 13079 13080 13381 13382 13383 13384 13385 13386 13387 13388 13389 13390 13391 13392 13393 13394 13395 13396 13397 13398 13399 13400 13401 13402 13403 13404 13405 13406 13407 13408 13409 13410 13411 13412 13413 13414 13415 13416 13417 13418 13419 13420 13421 13422 13423 13424 13425 13426 13427 13428 13429 13430 13431 13432 13433 13434 13435 13436 13437 13438 13439 13440 13741 13742 13743 13744 13745 13746 13747 13748 13749 13750 13751 13752 13753 13754 13755 13756 13757 13758 13759 13760 13761 13762 13763 13764 13765 13766 13767 13768 13769 13770 13771 13772 13773 13774 13775 13776 13777 13778 13779 13780 13781 13782 13783 13784 13785 13786 13787 13788 13789 13790 13791 13792 13793 13794 13795 13796 13797 13798 13799 13800 14101 14102 14103 14104 14105 14106 14107 14108 14109 14110 14111 14112 14113 14114 14115 14116 14117 14118 14119 14120 14121 14122 14123 14124 14125 14126 14127 14128 14129 14130 14131 14132 14133 14134 14135 14136 14137 14138 14139 14140 14141 14142 14143 14144 14145 14146 14147 14148 14149 14150 14151 14152 14153 14154 14155 14156 14157 14158 14159 14160 14461 14462 14463 14464 14465 14466 14467 14468 14469 14470 14471 14472 14473 14474 14475 14476 14477 14478 14479 14480 14481 14482 14483 14484 14485 14486 14487 14488 14489 14490 14491 14492 14493 14494 14495 14496 14497 14498 14499 14500 14501 14502 14503 14504 14505 14506 14507 14508 14509 14510 14511 14512 14513 14514 14515 14516 14517 14518 14519 14520 14821 14822 14823 14824 14825 14826 14827 14828 14829 14830 14831 14832 14833 14834 14835 14836 14837 14838 14839 14840 14841 14842 14843 14844 14845 14846 14847 14848 14849 14850 14851 14852 14853 14854 14855 14856 14857 14858 14859 14860 14861 14862 14863 14864 14865 14866 14867 14868 14869 14870 14871 14872 14873 14874 14875 14876 14877 14878 14879 14880 15181 15182 15183 15184 15185 15186 15187 15188 15189 15190 15191 15192 15193 15194 15195 15196 15197 15198 15199 15200 15201 15202 15203 15204 15205 15206 15207 15208 15209 15210 15211 15212 15213 15214 15215 15216 15217 15218 15219 15220 15221 15222 15223 15224 15225 15226 15227 15228 15229 15230 15231 15232 15233 15234 15235 15236 15237 15238 15239 15240 15541 15542 15543 15544 15545 15546 15547 15548 15549 15550 15551 15552 15553 15554 15555 15556 15557 15558 15559 15560 15561 15562 15563 15564 15565 15566 15567 15568 15569 15570 15571 15572 15573 15574 15575 15576 15577 15578 15579 15580 15581 15582 15583 15584 15585 15586 15587 15588 15589 15590 15591 15592 15593 15594 15595 15596 15597 15598 15599 15600 15901 15902 15903 15904 15905 15906 15907 15908 15909 15910 15911 15912 15913 15914 15915 15916 15917 15918 15919 15920 15921 15922 15923 15924 15925 15926 15927 15928 15929 15930 15931 15932 15933 15934 15935 15936 15937 15938 15939 15940 15941 15942 15943 15944 15945 15946 15947 15948 15949 15950 15951 15952 15953 15954 15955 15956 15957 15958 15959 15960 16261 16262 16263 16264 16265 16266 16267 16268 16269 16270 16271 16272 16273 16274 16275 16276 16277 16278 16279 16280 16281 16282 16283 16284 16285 16286 16287 16288 16289 16290 16291 16292 16293 16294 16295 16296 16297 16298 16299 16300 16301 16302 16303 16304 16305 16306 16307 16308 16309 16310 16311 16312 16313 16314 16315 16316 16317 16318 16319 16320 16621 16622 16623 16624 16625 16626 16627 16628 16629 16630 16631 16632 16633 16634 16635 16636 16637 16638 16639 16640 16641 16642 16643 16644 16645 16646 16647 16648 16649 16650 16651 16652 16653 16654 16655 16656 16657 16658 16659 16660 16661 16662 16663 16664 16665 16666 16667 16668 16669 16670 16671 16672 16673 16674 16675 16676 16677 16678 16679 16680 16981 16982 16983 16984 16985 16986 16987 16988 16989 16990 16991 16992 16993 16994 16995 16996 16997 16998 16999 17000 17001 17002 17003 17004 17005 17006 17007 17008 17009 17010 17011 17012 17013 17014 17015 17016 17017 17018 17019 17020 17021 17022 17023 17024 17025 17026 17027 17028 17029 17030 17031 17032 17033 17034 17035 17036 17037 17038 17039 17040 17341 17342 17343 17344 17345 17346 17347 17348 17349 17350 17351 17352 17353 17354 17355 17356 17357 17358 17359 17360 17361 17362 17363 17364 17365 17366 17367 17368 17369 17370 17371 17372 17373 17374 17375 17376 17377 17378 17379 17380 17381 17382 17383 17384 17385 17386 17387 17388 17389 17390 17391 17392 17393 17394 17395 17396 17397 17398 17399 17400 17701 17702 17703 17704 17705 17706 17707 17708 17709 17710 17711 17712 17713 17714 17715 17716 17717 17718 17719 17720 17721 17722 17723 17724 17725 17726 17727 17728 17729 17730 17731 17732 17733 17734 17735 17736 17737 17738 17739 17740 17741 17742 17743 17744 17745 17746 17747 17748 17749 17750 17751 17752 17753 17754 17755 17756 17757 17758 17759 17760 18061 18062 18063 18064 18065 18066 18067 18068 18069 18070 18071 18072 18073 18074 18075 18076 18077 18078 18079 18080 18081 18082 18083 18084 18085 18086 18087 18088 18089 18090 18091 18092 18093 18094 18095 18096 18097 18098 18099 18100 18101 18102 18103 18104 18105 18106 18107 18108 18109 18110 18111 18112 18113 18114 18115 18116 18117 18118 18119 18120 18421 18422 18423 18424 18425 18426 18427 18428 18429 18430 18431 18432 18433 18434 18435 18436 18437 18438 18439 18440 18441 18442 18443 18444 18445 18446 18447 18448 18449 18450 18451 18452 18453 18454 18455 18456 18457 18458 18459 18460 18461 18462 18463 18464 18465 18466 18467 18468 18469 18470 18471 18472 18473 18474 18475 18476 18477 18478 18479 18480 18781 18782 18783 18784 18785 18786 18787 18788 18789 18790 18791 18792 18793 18794 18795 18796 18797 18798 18799 18800 18801 18802 18803 18804 18805 18806 18807 18808 18809 18810 18811 18812 18813 18814 18815 18816 18817 18818 18819 18820 18821 18822 18823 18824 18825 18826 18827 18828 18829 18830 18831 18832 18833 18834 18835 18836 18837 18838 18839 18840 19141 19142 19143 19144 19145 19146 19147 19148 19149 19150 19151 19152 19153 19154 19155 19156 19157 19158 19159 19160 19161 19162 19163 19164 19165 19166 19167 19168 19169 19170 19171 19172 19173 19174 19175 19176 19177 19178 19179 19180 19181 19182 19183 19184 19185 19186 19187 19188 19189 19190 19191 19192 19193 19194 19195 19196 19197 19198 19199 19200 19501 19502 19503 19504 19505 19506 19507 19508 19509 19510 19511 19512 19513 19514 19515 19516 19517 19518 19519 19520 19521 19522 19523 19524 19525 19526 19527 19528 19529 19530 19531 19532 19533 19534 19535 19536 19537 19538 19539 19540 19541 19542 19543 19544 19545 19546 19547 19548 19549 19550 19551 19552 19553 19554 19555 19556 19557 19558 19559 19560 19861 19862 19863 19864 19865 19866 19867 19868 19869 19870 19871 19872 19873 19874 19875 19876 19877 19878 19879 19880 19881 19882 19883 19884 19885 19886 19887 19888 19889 19890 19891 19892 19893 19894 19895 19896 19897 19898 19899 19900 19901 19902 19903 19904 19905 19906 19907 19908 19909 19910 19911 19912 19913 19914 19915 19916 19917 19918 19919 19920 20221 20222 20223 20224 20225 20226 20227 20228 20229 20230 20231 20232 20233 20234 20235 20236 20237 20238 20239 20240 20241 20242 20243 20244 20245 20246 20247 20248 20249 20250 20251 20252 20253 20254 20255 20256 20257 20258 20259 20260 20261 20262 20263 20264 20265 20266 20267 20268 20269 20270 20271 20272 20273 20274 20275 20276 20277 20278 20279 20280 20581 20582 20583 20584 20585 20586 20587 20588 20589 20590 20591 20592 20593 20594 20595 20596 20597 20598 20599 20600 20601 20602 20603 20604 20605 20606 20607 20608 20609 20610 20611 20612 20613 20614 20615 20616 20617 20618 20619 20620 20621 20622 20623 20624 20625 20626 20627 20628 20629 20630 20631 20632 20633 20634 20635 20636 20637 20638 20639 20640 20941 20942 20943 20944 20945 20946 20947 20948 20949 20950 20951 20952 20953 20954 20955 20956 20957 20958 20959 20960 20961 20962 20963 20964 20965 20966 20967 20968 20969 20970 20971 20972 20973 20974 20975 20976 20977 20978 20979 20980 20981 20982 20983 20984 20985 20986 20987 20988 20989 20990 20991 20992 20993 20994 20995 20996 20997 20998 20999 21000 21301 21302 21303 21304 21305 21306 21307 21308 21309 21310 21311 21312 21313 21314 21315 21316 21317 21318 21319 21320 21321 21322 21323 21324 21325 21326 21327 21328 21329 21330 21331 21332 21333 21334 21335 21336 21337 21338 21339 21340 21341 21342 21343 21344 21345 21346 21347 21348 21349 21350 21351 21352 21353 21354 21355 21356 21357 21358 21359 21360 21661 21662 21663 21664 21665 21666 21667 21668 21669 21670 21671 21672 21673 21674 21675 21676 21677 21678 21679 21680 21681 21682 21683 21684 21685 21686 21687 21688 21689 21690 21691 21692 21693 21694 21695 21696 21697 21698 21699 2