# vtk DataFile Version 3.0
This file was generated by ESMC 
ASCII
DATASET UNSTRUCTURED_GRID
POINTS 441 double
-0.653614 -0.457665 -0.60277
-0.66704 -0.401919 -0.627311
-0.605822 -0.489347 -0.627311
-0.677904 -0.344404 -0.649485
-0.686136 -0.285345 -0.669175
-0.691677 -0.224979 -0.686271
-0.69448 -0.163558 -0.700675
-0.694515 -0.101345 -0.712305
-0.691765 -0.038615 -0.721089
-0.686231 0.0243524 -0.726976
-0.67793 0.087272 -0.729928
-0.666894 0.149857 -0.729928
-0.653176 0.211821 -0.726976
-0.63684 0.272884 -0.721089
-0.617969 0.332772 -0.712305
-0.596658 0.39122 -0.700675
-0.573017 0.447978 -0.686271
-0.547164 0.502809 -0.669175
-0.519228 0.555491 -0.649485
-0.489348 0.605822 -0.627311
-0.457666 0.653614 -0.60277
-0.555492 -0.519228 -0.649485
-0.50281 -0.547163 -0.669175
-0.447979 -0.573016 -0.686271
-0.391221 -0.596658 -0.700675
-0.332772 -0.617968 -0.712305
-0.272884 -0.636839 -0.721089
-0.211821 -0.653175 -0.726976
-0.149857 -0.666894 -0.729928
-0.087272 -0.677929 -0.729928
-0.0243522 -0.686231 -0.726976
0.0386154 -0.691765 -0.721089
0.101345 -0.694515 -0.712305
0.163558 -0.69448 -0.700675
0.224979 -0.691677 -0.686271
0.285345 -0.686136 -0.669175
0.344405 -0.677904 -0.649485
0.401919 -0.66704 -0.627311
0.457665 -0.653614 -0.60277
-0.618902 -0.433359 -0.655103
-0.629553 -0.375002 -0.680468
-0.637648 -0.314504 -0.703202
-0.643075 -0.252127 -0.723109
-0.645738 -0.188171 -0.74001
-0.645564 -0.122967 -0.753741
-0.642506 -0.0568731 -0.764167
-0.636544 0.00972739 -0.771179
-0.627687 0.0764379 -0.774704
-0.615976 0.142853 -0.774704
-0.601482 0.20857 -0.771179
-0.584307 0.273193 -0.764167
-0.564575 0.336347 -0.753741
-0.542437 0.397678 -0.74001
-0.51806 0.456866 -0.723109
-0.491627 0.513625 -0.703202
-0.463328 0.567707 -0.680468
-0.43336 0.618902 -0.655103
-0.40192 0.66704 -0.627311
-0.567707 -0.463327 -0.680468
-0.577661 -0.404482 -0.709014
-0.585183 -0.342905 -0.734831
-0.590115 -0.278866 -0.757626
-0.592319 -0.212698 -0.777122
-0.591683 -0.144789 -0.793062
-0.588131 -0.075581 -0.805226
-0.581625 -0.00555965 -0.813438
-0.572168 0.0647582 -0.817576
-0.55981 0.13484 -0.817576
-0.544647 0.204152 -0.813438
-0.526812 0.272176 -0.805226
-0.50648 0.338425 -0.793062
-0.483851 0.402455 -0.777122
-0.459149 0.46388 -0.757626
-0.432612 0.52237 -0.734831
-0.404483 0.577661 -0.709014
-0.375003 0.629553 -0.680468
-0.344405 0.677904 -0.649485
-0.513626 -0.491626 -0.703202
-0.52237 -0.432611 -0.734831
-0.528843 -0.370299 -0.763678
-0.532853 -0.30495 -0.78935
-0.53423 -0.236914 -0.811461
-0.532836 -0.166626 -0.829651
-0.528571 -0.0946039 -0.843601
-0.521383 -0.0214329 -0.853054
-0.511276 0.0522475 -0.857827
-0.498312 0.12577 -0.857827
-0.482609 0.198464 -0.853054
-0.464338 0.26968 -0.843601
-0.443713 0.338818 -0.829651
-0.420983 0.405344 -0.811461
-0.396418 0.468806 -0.78935
-0.3703 0.528842 -0.763678
-0.342906 0.585183 -0.734831
-0.314504 0.637648 -0.703202
-0.285346 0.686136 -0.669175
-0.456867 -0.518059 -0.723109
-0.463881 -0.459148 -0.757626
-0.468806 -0.396418 -0.78935
-0.47144 -0.330105 -0.817787
-0.471594 -0.260561 -0.842441
-0.469115 -0.188255 -0.862839
-0.463892 -0.113767 -0.878556
-0.455872 -0.0377794 -0.889243
-0.445064 0.0389502 -0.894651
-0.431545 0.11562 -0.894651
-0.415458 0.191418 -0.889243
-0.397005 0.265567 -0.878556
-0.376437 0.337348 -0.862839
-0.354036 0.406142 -0.842441
-0.330106 0.471439 -0.817787
-0.304951 0.532852 -0.78935
-0.278867 0.590115 -0.757626
-0.252128 0.643074 -0.723109
-0.224979 0.691677 -0.686271
-0.397679 -0.542436 -0.74001
-0.402456 -0.48385 -0.777122
-0.405345 -0.420982 -0.811461
-0.406143 -0.354035 -0.842441
-0.404666 -0.28335 -0.869459
-0.400764 -0.209413 -0.891928
-0.394332 -0.132857 -0.909314
-0.385326 -0.0544479 -0.921173
-0.37377 0.0249462 -0.927186
-0.359761 0.104395 -0.927186
-0.343465 0.182954 -0.921173
-0.325111 0.259714 -0.909314
-0.304971 0.333853 -0.891928
-0.28335 0.404666 -0.869459
-0.260562 0.471593 -0.842441
-0.236915 0.53423 -0.811461
-0.212699 0.592318 -0.777122
-0.188171 0.645737 -0.74001
-0.163558 0.69448 -0.700675
-0.336347 -0.564574 -0.753742
-0.338425 -0.506479 -0.793062
-0.338819 -0.443712 -0.829651
-0.337349 -0.376436 -0.862839
-0.333853 -0.304971 -0.891928
-0.328204 -0.229811 -0.916225
-0.320322 -0.151626 -0.935095
-0.310187 -0.0712496 -0.948002
-0.297848 0.0103541 -0.954557
-0.283427 0.0921403 -0.954557
-0.267111 0.173043 -0.948002
-0.249145 0.252038 -0.935095
-0.229811 0.328204 -0.916225
-0.209413 0.400763 -0.891928
-0.188255 0.469114 -0.862839
-0.166627 0.532836 -0.829651
-0.144789 0.591683 -0.793062
-0.122967 0.645564 -0.753742
-0.101346 0.694515 -0.712305
-0.273194 -0.584306 -0.764167
-0.272176 -0.526812 -0.805226
-0.269681 -0.464337 -0.843601
-0.265567 -0.397005 -0.878556
-0.259714 -0.32511 -0.909314
-0.252039 -0.249145 -0.935095
-0.242501 -0.169801 -0.955176
-0.231123 -0.0879627 -0.96894
-0.217988 -0.00466863 -0.97594
-0.203245 0.0789432 -0.97594
-0.187099 0.161707 -0.96894
-0.169801 0.242501 -0.955176
-0.151626 0.320322 -0.935095
-0.132858 0.394331 -0.909314
-0.113768 0.463892 -0.878556
-0.0946044 0.528571 -0.843601
-0.0755815 0.588131 -0.805226
-0.0568736 0.642506 -0.764167
-0.0386156 0.691765 -0.721089
-0.20857 -0.601482 -0.77118
-0.204152 -0.544646 -0.813439
-0.198464 -0.482609 -0.853054
-0.191419 -0.415458 -0.889243
-0.182954 -0.343465 -0.921173
-0.173043 -0.267111 -0.948002
-0.161707 -0.187099 -0.96894
-0.149017 -0.104342 -0.983314
-0.135101 -0.0199302 -0.990631
-0.120137 0.0649356 -0.990631
-0.104343 0.149016 -0.983314
-0.087963 0.231122 -0.96894
-0.0712501 0.310186 -0.948002
-0.0544484 0.385325 -0.921173
-0.0377799 0.455872 -0.889243
-0.0214334 0.521383 -0.853054
-0.00556024 0.581624 -0.813439
0.00972712 0.636543 -0.77118
0.0243521 0.686231 -0.726976
-0.142854 -0.615975 -0.774705
-0.13484 -0.55981 -0.817576
-0.12577 -0.498312 -0.857827
-0.11562 -0.431545 -0.894651
-0.104395 -0.35976 -0.927186
-0.0921405 -0.283426 -0.954557
-0.0789433 -0.203244 -0.97594
-0.0649357 -0.120136 -0.990631
-0.0502907 -0.0352137 -0.998114
-0.035214 0.0502905 -0.998114
-0.0199304 0.135101 -0.990631
-0.00466879 0.217987 -0.97594
0.0103539 0.297848 -0.954557
0.0249459 0.373769 -0.927186
0.03895 0.445064 -0.894651
0.0522472 0.511276 -0.857827
0.064758 0.572167 -0.817576
0.0764376 0.627686 -0.774705
0.0872718 0.677929 -0.729928
-0.0764379 -0.627686 -0.774705
-0.0647582 -0.572167 -0.817576
-0.0522474 -0.511276 -0.857827
-0.0389503 -0.445064 -0.894651
-0.0249462 -0.373769 -0.927186
-0.0103541 -0.297848 -0.954557
0.00466863 -0.217987 -0.97594
0.0199303 -0.135101 -0.990631
0.0352139 -0.0502906 -0.998114
0.0502906 0.0352138 -0.998114
0.0649355 0.120136 -0.990631
0.0789432 0.203244 -0.97594
0.0921403 0.283427 -0.954557
0.104395 0.35976 -0.927186
0.11562 0.431545 -0.894651
0.12577 0.498312 -0.857827
0.13484 0.55981 -0.817576
0.142853 0.615975 -0.774705
0.149857 0.666894 -0.729928
-0.00972736 -0.636543 -0.77118
0.00555995 -0.581624 -0.813439
0.0214331 -0.521383 -0.853054
0.0377798 -0.455872 -0.889243
0.0544483 -0.385325 -0.921173
0.0712499 -0.310186 -0.948002
0.0879628 -0.231122 -0.96894
0.104343 -0.149016 -0.983314
0.120137 -0.0649354 -0.990631
0.135101 0.0199302 -0.990631
0.149016 0.104342 -0.983314
0.161707 0.187099 -0.96894
0.173043 0.267111 -0.948002
0.182954 0.343465 -0.921173
0.191419 0.415458 -0.889243
0.198464 0.482609 -0.853054
0.204152 0.544646 -0.813439
0.20857 0.601482 -0.77118
0.211821 0.653175 -0.726976
0.0568732 -0.642506 -0.764167
0.0755813 -0.588131 -0.805226
0.0946041 -0.528571 -0.843601
0.113767 -0.463892 -0.878556
0.132857 -0.394331 -0.909314
0.151626 -0.320322 -0.935095
0.169801 -0.242501 -0.955176
0.187099 -0.161706 -0.96894
0.203245 -0.0789432 -0.97594
0.217988 0.0046686 -0.97594
0.231122 0.0879626 -0.96894
0.242501 0.169801 -0.955176
0.252038 0.249145 -0.935095
0.259714 0.32511 -0.909314
0.265567 0.397005 -0.878556
0.269681 0.464337 -0.843601
0.272176 0.526812 -0.805226
0.273193 0.584306 -0.764167
0.272884 0.63684 -0.721089
0.122967 -0.645564 -0.753742
0.144789 -0.591683 -0.793062
0.166627 -0.532836 -0.829651
0.188255 -0.469114 -0.862839
0.209413 -0.400763 -0.891928
0.229811 -0.328204 -0.916225
0.249145 -0.252038 -0.935095
0.267111 -0.173043 -0.948002
0.283427 -0.0921403 -0.954557
0.297848 -0.010354 -0.954557
0.310187 0.0712497 -0.948002
0.320322 0.151626 -0.935095
0.328204 0.229811 -0.916225
0.333853 0.304971 -0.891928
0.337349 0.376436 -0.862839
0.338819 0.443712 -0.829651
0.338425 0.506479 -0.793062
0.336347 0.564574 -0.753742
0.332772 0.617968 -0.712305
0.188171 -0.645737 -0.74001
0.212698 -0.592318 -0.777122
0.236915 -0.53423 -0.811461
0.260562 -0.471594 -0.842441
0.28335 -0.404666 -0.869459
0.304971 -0.333853 -0.891928
0.325111 -0.259714 -0.909314
0.343465 -0.182954 -0.921173
0.359761 -0.104395 -0.927186
0.373769 -0.0249461 -0.927186
0.385325 0.0544481 -0.921173
0.394332 0.132857 -0.909314
0.400764 0.209413 -0.891928
0.404666 0.28335 -0.869459
0.406143 0.354036 -0.842441
0.405345 0.420982 -0.811461
0.402456 0.48385 -0.777122
0.397678 0.542436 -0.74001
0.39122 0.596658 -0.700675
0.252127 -0.643074 -0.723109
0.278867 -0.590115 -0.757626
0.304951 -0.532852 -0.78935
0.330106 -0.471439 -0.817787
0.354036 -0.406142 -0.842441
0.376436 -0.337348 -0.862839
0.397005 -0.265567 -0.878556
0.415458 -0.191419 -0.889243
0.431545 -0.11562 -0.894651
0.445064 -0.0389502 -0.894651
0.455872 0.0377796 -0.889243
0.463892 0.113767 -0.878556
0.469114 0.188255 -0.862839
0.471594 0.260562 -0.842441
0.47144 0.330105 -0.817787
0.468806 0.396418 -0.78935
0.46388 0.459148 -0.757626
0.456867 0.518059 -0.723109
0.447979 0.573016 -0.686271
0.314504 -0.637648 -0.703202
0.342905 -0.585183 -0.734831
0.370299 -0.528842 -0.763678
0.396418 -0.468806 -0.78935
0.420983 -0.405344 -0.811461
0.443713 -0.338819 -0.829651
0.464338 -0.269681 -0.843601
0.482609 -0.198464 -0.853054
0.498312 -0.12577 -0.857827
0.511276 -0.0522476 -0.857827
0.521383 0.021433 -0.853054
0.528571 0.094604 -0.843601
0.532836 0.166627 -0.829651
0.53423 0.236915 -0.811461
0.532852 0.304951 -0.78935
0.528842 0.370299 -0.763678
0.52237 0.432611 -0.734831
0.513626 0.491626 -0.703202
0.502809 0.547163 -0.669175
0.375003 -0.629553 -0.680468
0.404483 -0.577661 -0.709014
0.432612 -0.52237 -0.734831
0.459149 -0.46388 -0.757626
0.483851 -0.402456 -0.777122
0.50648 -0.338425 -0.793062
0.526812 -0.272176 -0.805226
0.544647 -0.204152 -0.813438
0.55981 -0.13484 -0.817576
0.572168 -0.0647584 -0.817576
0.581625 0.00555975 -0.813438
0.588131 0.0755811 -0.805226
0.591683 0.144789 -0.793062
0.592319 0.212698 -0.777122
0.590115 0.278867 -0.757626
0.585183 0.342905 -0.734831
0.577661 0.404483 -0.709014
0.567707 0.463327 -0.680468
0.555492 0.519228 -0.649485
0.43336 -0.618902 -0.655103
0.463328 -0.567707 -0.680468
0.491626 -0.513626 -0.703202
0.51806 -0.456867 -0.723109
0.542436 -0.397678 -0.74001
0.564575 -0.336347 -0.753741
0.584306 -0.273193 -0.764167
0.601482 -0.20857 -0.771179
0.615976 -0.142853 -0.774704
0.627687 -0.0764378 -0.774704
0.636544 -0.00972748 -0.771179
0.642506 0.0568732 -0.764167
0.645564 0.122967 -0.753741
0.645738 0.188171 -0.74001
0.643074 0.252127 -0.723109
0.637648 0.314504 -0.703202
0.629553 0.375003 -0.680468
0.618902 0.43336 -0.655103
0.605822 0.489348 -0.627311
0.489348 -0.605822 -0.627311
0.519228 -0.555491 -0.649486
0.547163 -0.502809 -0.669175
0.573016 -0.447979 -0.686271
0.596658 -0.39122 -0.700675
0.617969 -0.332772 -0.712304
0.63684 -0.272884 -0.721089
0.653175 -0.211821 -0.726976
0.666894 -0.149857 -0.729928
0.67793 -0.0872721 -0.729928
0.686231 -0.0243524 -0.726976
0.691765 0.0386152 -0.721089
0.694515 0.101346 -0.712305
0.69448 0.163558 -0.700675
0.691677 0.224979 -0.686271
0.686136 0.285345 -0.669175
0.677904 0.344405 -0.649486
0.66704 0.401919 -0.627311
0.653614 0.457665 -0.60277
-0.45097 0.691586 -0.564211
-0.394939 0.706626 -0.587113
-0.337166 0.718956 -0.6078
-0.277876 0.728495 -0.626163
-0.217309 0.735175 -0.642102
-0.155718 0.738942 -0.655528
-0.0933684 0.739756 -0.666365
-0.030534 0.737597 -0.67455
0.0325035 0.732459 -0.680035
0.0954582 0.724357 -0.682785
0.158043 0.713321 -0.682785
0.219972 0.699403 -0.680035
0.280965 0.682671 -0.67455
0.340749 0.66321 -0.666365
0.39906 0.641119 -0.655528
0.455648 0.616515 -0.642102
0.510278 0.589522 -0.626163
0.56273 0.56028 -0.6078
0.612802 0.528935 -0.587113
0.660309 0.495638 -0.564211
0.528935 -0.612802 -0.587113
0.495638 -0.660309 -0.564211
0.56028 -0.56273 -0.6078
0.589522 -0.510278 -0.626163
0.616514 -0.455648 -0.642102
0.641119 -0.39906 -0.655528
0.66321 -0.340749 -0.666366
0.682671 -0.280966 -0.674551
0.699403 -0.219972 -0.680035
0.713321 -0.158043 -0.682785
0.724357 -0.0954582 -0.682785
0.732459 -0.0325038 -0.680035
0.737597 0.0305337 -0.674551
0.739756 0.0933683 -0.666366
0.738942 0.155718 -0.655528
0.735175 0.217309 -0.642102
0.728495 0.277876 -0.626163
0.718956 0.337166 -0.6078
0.706626 0.394939 -0.587113
0.691587 0.45097 -0.564211
-0.495638 0.660309 -0.564211
CELLS 401 2005
4 0 1 39 2 
4 1 3 40 39 
4 3 4 41 40 
4 4 5 42 41 
4 5 6 43 42 
4 6 7 44 43 
4 7 8 45 44 
4 8 9 46 45 
4 9 10 47 46 
4 10 11 48 47 
4 11 12 49 48 
4 12 13 50 49 
4 13 14 51 50 
4 14 15 52 51 
4 15 16 53 52 
4 16 17 54 53 
4 17 18 55 54 
4 18 19 56 55 
4 19 20 57 56 
4 20 400 401 57 
4 2 39 58 21 
4 39 40 59 58 
4 40 41 60 59 
4 41 42 61 60 
4 42 43 62 61 
4 43 44 63 62 
4 44 45 64 63 
4 45 46 65 64 
4 46 47 66 65 
4 47 48 67 66 
4 48 49 68 67 
4 49 50 69 68 
4 50 51 70 69 
4 51 52 71 70 
4 52 53 72 71 
4 53 54 73 72 
4 54 55 74 73 
4 55 56 75 74 
4 56 57 76 75 
4 57 401 402 76 
4 21 58 77 22 
4 58 59 78 77 
4 59 60 79 78 
4 60 61 80 79 
4 61 62 81 80 
4 62 63 82 81 
4 63 64 83 82 
4 64 65 84 83 
4 65 66 85 84 
4 66 67 86 85 
4 67 68 87 86 
4 68 69 88 87 
4 69 70 89 88 
4 70 71 90 89 
4 71 72 91 90 
4 72 73 92 91 
4 73 74 93 92 
4 74 75 94 93 
4 75 76 95 94 
4 76 402 403 95 
4 22 77 96 23 
4 77 78 97 96 
4 78 79 98 97 
4 79 80 99 98 
4 80 81 100 99 
4 81 82 101 100 
4 82 83 102 101 
4 83 84 103 102 
4 84 85 104 103 
4 85 86 105 104 
4 86 87 106 105 
4 87 88 107 106 
4 88 89 108 107 
4 89 90 109 108 
4 90 91 110 109 
4 91 92 111 110 
4 92 93 112 111 
4 93 94 113 112 
4 94 95 114 113 
4 95 403 404 114 
4 23 96 115 24 
4 96 97 116 115 
4 97 98 117 116 
4 98 99 118 117 
4 99 100 119 118 
4 100 101 120 119 
4 101 102 121 120 
4 102 103 122 121 
4 103 104 123 122 
4 104 105 124 123 
4 105 106 125 124 
4 106 107 126 125 
4 107 108 127 126 
4 108 109 128 127 
4 109 110 129 128 
4 110 111 130 129 
4 111 112 131 130 
4 112 113 132 131 
4 113 114 133 132 
4 114 404 405 133 
4 24 115 134 25 
4 115 116 135 134 
4 116 117 136 135 
4 117 118 137 136 
4 118 119 138 137 
4 119 120 139 138 
4 120 121 140 139 
4 121 122 141 140 
4 122 123 142 141 
4 123 124 143 142 
4 124 125 144 143 
4 125 126 145 144 
4 126 127 146 145 
4 127 128 147 146 
4 128 129 148 147 
4 129 130 149 148 
4 130 131 150 149 
4 131 132 151 150 
4 132 133 152 151 
4 133 405 406 152 
4 25 134 153 26 
4 134 135 154 153 
4 135 136 155 154 
4 136 137 156 155 
4 137 138 157 156 
4 138 139 158 157 
4 139 140 159 158 
4 140 141 160 159 
4 141 142 161 160 
4 142 143 162 161 
4 143 144 163 162 
4 144 145 164 163 
4 145 146 165 164 
4 146 147 166 165 
4 147 148 167 166 
4 148 149 168 167 
4 149 150 169 168 
4 150 151 170 169 
4 151 152 171 170 
4 152 406 407 171 
4 26 153 172 27 
4 153 154 173 172 
4 154 155 174 173 
4 155 156 175 174 
4 156 157 176 175 
4 157 158 177 176 
4 158 159 178 177 
4 159 160 179 178 
4 160 161 180 179 
4 161 162 181 180 
4 162 163 182 181 
4 163 164 183 182 
4 164 165 184 183 
4 165 166 185 184 
4 166 167 186 185 
4 167 168 187 186 
4 168 169 188 187 
4 169 170 189 188 
4 170 171 190 189 
4 171 407 408 190 
4 27 172 191 28 
4 172 173 192 191 
4 173 174 193 192 
4 174 175 194 193 
4 175 176 195 194 
4 176 177 196 195 
4 177 178 197 196 
4 178 179 198 197 
4 179 180 199 198 
4 180 181 200 199 
4 181 182 201 200 
4 182 183 202 201 
4 183 184 203 202 
4 184 185 204 203 
4 185 186 205 204 
4 186 187 206 205 
4 187 188 207 206 
4 188 189 208 207 
4 189 190 209 208 
4 190 408 409 209 
4 28 191 210 29 
4 191 192 211 210 
4 192 193 212 211 
4 193 194 213 212 
4 194 195 214 213 
4 195 196 215 214 
4 196 197 216 215 
4 197 198 217 216 
4 198 199 218 217 
4 199 200 219 218 
4 200 201 220 219 
4 201 202 221 220 
4 202 203 222 221 
4 203 204 223 222 
4 204 205 224 223 
4 205 206 225 224 
4 206 207 226 225 
4 207 208 227 226 
4 208 209 228 227 
4 209 409 410 228 
4 29 210 229 30 
4 210 211 230 229 
4 211 212 231 230 
4 212 213 232 231 
4 213 214 233 232 
4 214 215 234 233 
4 215 216 235 234 
4 216 217 236 235 
4 217 218 237 236 
4 218 219 238 237 
4 219 220 239 238 
4 220 221 240 239 
4 221 222 241 240 
4 222 223 242 241 
4 223 224 243 242 
4 224 225 244 243 
4 225 226 245 244 
4 226 227 246 245 
4 227 228 247 246 
4 228 410 411 247 
4 30 229 248 31 
4 229 230 249 248 
4 230 231 250 249 
4 231 232 251 250 
4 232 233 252 251 
4 233 234 253 252 
4 234 235 254 253 
4 235 236 255 254 
4 236 237 256 255 
4 237 238 257 256 
4 238 239 258 257 
4 239 240 259 258 
4 240 241 260 259 
4 241 242 261 260 
4 242 243 262 261 
4 243 244 263 262 
4 244 245 264 263 
4 245 246 265 264 
4 246 247 266 265 
4 247 411 412 266 
4 31 248 267 32 
4 248 249 268 267 
4 249 250 269 268 
4 250 251 270 269 
4 251 252 271 270 
4 252 253 272 271 
4 253 254 273 272 
4 254 255 274 273 
4 255 256 275 274 
4 256 257 276 275 
4 257 258 277 276 
4 258 259 278 277 
4 259 260 279 278 
4 260 261 280 279 
4 261 262 281 280 
4 262 263 282 281 
4 263 264 283 282 
4 264 265 284 283 
4 265 266 285 284 
4 266 412 413 285 
4 32 267 286 33 
4 267 268 287 286 
4 268 269 288 287 
4 269 270 289 288 
4 270 271 290 289 
4 271 272 291 290 
4 272 273 292 291 
4 273 274 293 292 
4 274 275 294 293 
4 275 276 295 294 
4 276 277 296 295 
4 277 278 297 296 
4 278 279 298 297 
4 279 280 299 298 
4 280 281 300 299 
4 281 282 301 300 
4 282 283 302 301 
4 283 284 303 302 
4 284 285 304 303 
4 285 413 414 304 
4 33 286 305 34 
4 286 287 306 305 
4 287 288 307 306 
4 288 289 308 307 
4 289 290 309 308 
4 290 291 310 309 
4 291 292 311 310 
4 292 293 312 311 
4 293 294 313 312 
4 294 295 314 313 
4 295 296 315 314 
4 296 297 316 315 
4 297 298 317 316 
4 298 299 318 317 
4 299 300 319 318 
4 300 301 320 319 
4 301 302 321 320 
4 302 303 322 321 
4 303 304 323 322 
4 304 414 415 323 
4 34 305 324 35 
4 305 306 325 324 
4 306 307 326 325 
4 307 308 327 326 
4 308 309 328 327 
4 309 310 329 328 
4 310 311 330 329 
4 311 312 331 330 
4 312 313 332 331 
4 313 314 333 332 
4 314 315 334 333 
4 315 316 335 334 
4 316 317 336 335 
4 317 318 337 336 
4 318 319 338 337 
4 319 320 339 338 
4 320 321 340 339 
4 321 322 341 340 
4 322 323 342 341 
4 323 415 416 342 
4 35 324 343 36 
4 324 325 344 343 
4 325 326 345 344 
4 326 327 346 345 
4 327 328 347 346 
4 328 329 348 347 
4 329 330 349 348 
4 330 331 350 349 
4 331 332 351 350 
4 332 333 352 351 
4 333 334 353 352 
4 334 335 354 353 
4 335 336 355 354 
4 336 337 356 355 
4 337 338 357 356 
4 338 339 358 357 
4 339 340 359 358 
4 340 341 360 359 
4 341 342 361 360 
4 342 416 417 361 
4 36 343 362 37 
4 343 344 363 362 
4 344 345 364 363 
4 345 346 365 364 
4 346 347 366 365 
4 347 348 367 366 
4 348 349 368 367 
4 349 350 369 368 
4 350 351 370 369 
4 351 352 371 370 
4 352 353 372 371 
4 353 354 373 372 
4 354 355 374 373 
4 355 356 375 374 
4 356 357 376 375 
4 357 358 377 376 
4 358 359 378 377 
4 359 360 379 378 
4 360 361 380 379 
4 361 417 418 380 
4 37 362 381 38 
4 362 363 382 381 
4 363 364 383 382 
4 364 365 384 383 
4 365 366 385 384 
4 366 367 386 385 
4 367 368 387 386 
4 368 369 388 387 
4 369 370 389 388 
4 370 371 390 389 
4 371 372 391 390 
4 372 373 392 391 
4 373 374 393 392 
4 374 375 394 393 
4 375 376 395 394 
4 376 377 396 395 
4 377 378 397 396 
4 378 379 398 397 
4 379 380 399 398 
4 380 418 419 399 
4 38 381 420 421 
4 381 382 422 420 
4 382 383 423 422 
4 383 384 424 423 
4 384 385 425 424 
4 385 386 426 425 
4 386 387 427 426 
4 387 388 428 427 
4 388 389 429 428 
4 389 390 430 429 
4 390 391 431 430 
4 391 392 432 431 
4 392 393 433 432 
4 393 394 434 433 
4 394 395 435 434 
4 395 396 436 435 
4 396 397 437 436 
4 397 398 438 437 
4 398 399 439 438 
4 399 419 419 439 
4 20 440 400 400 
CELL_TYPES 401
9
9
9
9
9
9
9
9
9
9
9
9
9
9
9
9
9
9
9
9
9
9
9
9
9
9
9
9
9
9
9
9
9
9
9
9
9
9
9
9
9
9
9
9
9
9
9
9
9
9
9
9
9
9
9
9
9
9
9
9
9
9
9
9
9
9
9
9
9
9
9
9
9
9
9
9
9
9
9
9
9
9
9
9
9
9
9
9
9
9
9
9
9
9
9
9
9
9
9
9
9
9
9
9
9
9
9
9
9
9
9
9
9
9
9
9
9
9
9
9
9
9
9
9
9
9
9
9
9
9
9
9
9
9
9
9
9
9
9
9
9
9
9
9
9
9
9
9
9
9
9
9
9
9
9
9
9
9
9
9
9
9
9
9
9
9
9
9
9
9
9
9
9
9
9
9
9
9
9
9
9
9
9
9
9
9
9
9
9
9
9
9
9
9
9
9
9
9
9
9
9
9
9
9
9
9
9
9
9
9
9
9
9
9
9
9
9
9
9
9
9
9
9
9
9
9
9
9
9
9
9
9
9
9
9
9
9
9
9
9
9
9
9
9
9
9
9
9
9
9
9
9
9
9
9
9
9
9
9
9
9
9
9
9
9
9
9
9
9
9
9
9
9
9
9
9
9
9
9
9
9
9
9
9
9
9
9
9
9
9
9
9
9
9
9
9
9
9
9
9
9
9
9
9
9
9
9
9
9
9
9
9
9
9
9
9
9
9
9
9
9
9
9
9
9
9
9
9
9
9
9
9
9
9
9
9
9
9
9
9
9
9
9
9
9
9
9
9
9
9
9
9
9
9
9
9
9
9
9
9
9
9
9
9
9
9
9
9
9
9
9
9
9
9
9
9
9
9
9
9
9
9
9
9
9
9
9
9
9
9
9
9
9
9
9
9
9
9
9
9
9
CELL_DATA 401
SCALARS _ELEM_NUM double 1
LOOKUP_TABLE default
2001 2002 2003 2004 2005 2006 2007 2008 2009 2010 2011 2012 2013 2014 2015 2016 2017 2018 2019 2020 2021 2022 2023 2024 2025 2026 2027 2028 2029 2030 2031 2032 2033 2034 2035 2036 2037 2038 2039 2040 2041 2042 2043 2044 2045 2046 2047 2048 2049 2050 2051 2052 2053 2054 2055 2056 2057 2058 2059 2060 2061 2062 2063 2064 2065 2066 2067 2068 2069 2070 2071 2072 2073 2074 2075 2076 2077 2078 2079 2080 2081 2082 2083 2084 2085 2086 2087 2088 2089 2090 2091 2092 2093 2094 2095 2096 2097 2098 2099 2100 2101 2102 2103 2104 2105 2106 2107 2108 2109 2110 2111 2112 2113 2114 2115 2116 2117 2118 2119 2120 2121 2122 2123 2124 2125 2126 2127 2128 2129 2130 2131 2132 2133 2134 2135 2136 2137 2138 2139 2140 2141 2142 2143 2144 2145 2146 2147 2148 2149 2150 2151 2152 2153 2154 2155 2156 2157 2158 2159 2160 2161 2162 2163 2164 2165 2166 2167 2168 2169 2170 2171 2172 2173 2174 2175 2176 2177 2178 2179 2180 2181 2182 2183 2184 2185 2186 2187 2188 2189 2190 2191 2192 2193 2194 2195 2196 2197 2198 2199 2200 2201 2202 2203 2204 2205 2206 2207 2208 2209 2210 2211 2212 2213 2214 2215 2216 2217 2218 2219 2220 2221 2222 2223 2224 2225 2226 2227 2228 2229 2230 2231 2232 2233 2234 2235 2236 2237 2238 2239 2240 2241 2242 2243 2244 2245 2246 2247 2248 2249 2250 2251 2252 2253 2254 2255 2256 2257 2258 2259 2260 2261 2262 2263 2264 2265 2266 2267 2268 2269 2270 2271 2272 2273 2274 2275 2276 2277 2278 2279 2280 2281 2282 2283 2284 2285 2286 2287 2288 2289 2290 2291 2292 2293 2294 2295 2296 2297 2298 2299 2300 2301 2302 2303 2304 2305 2306 2307 2308 2309 2310 2311 2312 2313 2314 2315 2316 2317 2318 2319 2320 2321 2322 2323 2324 2325 2326 2327 2328 2329 2330 2331 2332 2333 2334 2335 2336 2337 2338 2339 2340 2341 2342 2343 2344 2345 2346 2347 2348 2349 2350 2351 2352 2353 2354 2355 2356 2357 2358 2359 2360 2361 2362 2363 2364 2365 2366 2367 2368 2369 2370 2371 2372 2373 2374 2375 2376 2377 2378 2379 2380 2381 2382 2383 2384 2385 2386 2387 2388 2389 2390 2391 2392 2393 2394 2395 2396 2397 2398 2399 2400 2402 
POINT_DATA 441
SCALARS _NODE_NUM double 1
LOOKUP_TABLE default
2001 2002 2021 2003 2004 2005 2006 2007 2008 2009 2010 2011 2012 2013 2014 2015 2016 2017 2018 2019 2020 2041 2061 2081 2101 2121 2141 2161 2181 2201 2221 2241 2261 2281 2301 2321 2341 2361 2381 2022 2023 2024 2025 2026 2027 2028 2029 2030 2031 2032 2033 2034 2035 2036 2037 2038 2039 2040 2042 2043 2044 2045 2046 2047 2048 2049 2050 2051 2052 2053 2054 2055 2056 2057 2058 2059 2060 2062 2063 2064 2065 2066 2067 2068 2069 2070 2071 2072 2073 2074 2075 2076 2077 2078 2079 2080 2082 2083 2084 2085 2086 2087 2088 2089 2090 2091 2092 2093 2094 2095 2096 2097 2098 2099 2100 2102 2103 2104 2105 2106 2107 2108 2109 2110 2111 2112 2113 2114 2115 2116 2117 2118 2119 2120 2122 2123 2124 2125 2126 2127 2128 2129 2130 2131 2132 2133 2134 2135 2136 2137 2138 2139 2140 2142 2143 2144 2145 2146 2147 2148 2149 2150 2151 2152 2153 2154 2155 2156 2157 2158 2159 2160 2162 2163 2164 2165 2166 2167 2168 2169 2170 2171 2172 2173 2174 2175 2176 2177 2178 2179 2180 2182 2183 2184 2185 2186 2187 2188 2189 2190 2191 2192 2193 2194 2195 2196 2197 2198 2199 2200 2202 2203 2204 2205 2206 2207 2208 2209 2210 2211 2212 2213 2214 2215 2216 2217 2218 2219 2220 2222 2223 2224 2225 2226 2227 2228 2229 2230 2231 2232 2233 2234 2235 2236 2237 2238 2239 2240 2242 2243 2244 2245 2246 2247 2248 2249 2250 2251 2252 2253 2254 2255 2256 2257 2258 2259 2260 2262 2263 2264 2265 2266 2267 2268 2269 2270 2271 2272 2273 2274 2275 2276 2277 2278 2279 2280 2282 2283 2284 2285 2286 2287 2288 2289 2290 2291 2292 2293 2294 2295 2296 2297 2298 2299 2300 2302 2303 2304 2305 2306 2307 2308 2309 2310 2311 2312 2313 2314 2315 2316 2317 2318 2319 2320 2322 2323 2324 2325 2326 2327 2328 2329 2330 2331 2332 2333 2334 2335 2336 2337 2338 2339 2340 2342 2343 2344 2345 2346 2347 2348 2349 2350 2351 2352 2353 2354 2355 2356 2357 2358 2359 2360 2362 2363 2364 2365 2366 2367 2368 2369 2370 2371 2372 2373 2374 2375 2376 2377 2378 2379 2380 2382 2383 2384 2385 2386 2387 2388 2389 2390 2391 2392 2393 2394 2395 2396 2397 2398 2399 2400 420 419 418 417 416 415 414 413 412 411 410 409 408 407 406 405 404 403 402 401 2 1 3 4 5 6 7 8 9 10 11 12 13 14 15 16 17 18 19 20 1220 
SCALARS array_000 double 1
LOOKUP_TABLE default
13.286 13.3037 13.2775 13.3282 13.3593 13.3971 13.4413 13.4918 13.5485 13.6111 13.6794 13.753 13.8317 13.915 14.0025 14.0939 14.1887 14.2865 14.3868 14.4892 14.5932 13.2758 13.2809 13.2927 13.3114 13.337 13.3692 13.408 13.4533 13.5049 13.5624 13.6258 13.6945 13.7684 13.847 13.93 14.017 14.1076 14.2013 13.2926 13.315 13.3446 13.3817 13.4261 13.4777 13.5365 13.602 13.674 13.7522 13.8359 13.9247 14.018 14.1152 14.2157 14.3188 14.4239 14.5304 14.6378 13.2885 13.3088 13.3371 13.3734 13.4179 13.4705 13.5311 13.5994 13.675 13.7575 13.8461 13.9401 14.0389 14.1415 14.2471 14.3549 14.4642 14.5741 14.684 13.2915 13.3102 13.3372 13.3728 13.4174 13.4709 13.5332 13.6041 13.6831 13.7696 13.8628 13.9617 14.0655 14.1729 14.283 14.3949 14.5074 14.6199 14.7316 13.302 13.3193 13.3454 13.3807 13.4254 13.4798 13.5438 13.6171 13.6992 13.7894 13.8867 13.99 14.0981 14.2097 14.3235 14.4386 14.5536 14.6678 14.7804 13.3199 13.3366 13.3622 13.3974 13.4425 13.4979 13.5635 13.6391 13.724 13.8174 13.9183 14.0253 14.137 14.2519 14.3686 14.4859 14.6025 14.7176 14.8302 13.3453 13.362 13.3878 13.4234 13.4692 13.5258 13.593 13.6706 13.7579 13.8542 13.9579 14.0678 14.1822 14.2994 14.418 14.5366 14.6538 14.7689 14.8809 13.3783 13.3958 13.4224 13.4589 13.5059 13.5637 13.6325 13.712 13.8014 13.8998 14.0057 14.1175 14.2336 14.3522 14.4716 14.5904 14.7073 14.8215 14.9321 13.4188 13.4378 13.4659 13.5039 13.5524 13.6118 13.6823 13.7633 13.8543 13.9542 14.0614 14.1742 14.2909 14.4097 14.5288 14.6469 14.7626 14.8751 14.9836 13.4665 13.4878 13.5181 13.5582 13.6087 13.6699 13.7419 13.8243 13.9164 14.017 14.1245 14.2374 14.3536 14.4715 14.5894 14.7057 14.8193 14.9294 15.0353 13.5212 13.5455 13.5786 13.6213 13.6741 13.7372 13.8107 13.8942 13.9868 14.0874 14.1944 14.3062 14.421 14.537 14.6525 14.7663 14.8771 14.9841 15.0868 13.5825 13.6105 13.647 13.6927 13.748 13.8131 13.8879 13.972 14.0646 14.1644 14.27 14.3799 14.4922 14.6052 14.7176 14.828 14.9354 15.0389 15.138 13.6502 13.6822 13.7224 13.7713 13.8292 13.8962 13.9721 14.0565 14.1484 14.2467 14.3501 14.4571 14.5661 14.6755 14.784 14.8904 14.9938 15.0933 15.1886 13.7237 13.76 13.8041 13.8563 13.9167 13.9854 14.062 14.1461 14.2367 14.3329 14.4334 14.5369 14.6418 14.7469 14.8509 14.9529 15.0518 15.1472 15.2384 13.8024 13.8433 13.8912 13.9465 14.0092 14.0792 14.1561 14.2393 14.3282 14.4216 14.5186 14.6179 14.7182 14.8186 14.9177 15.0149 15.1092 15.2001 15.2872 13.8859 13.9311 13.9827 14.0409 14.1055 14.1762 14.2529 14.3348 14.4213 14.5115 14.6044 14.6991 14.7945 14.8897 14.9838 15.0759 15.1654 15.2518 15.3347 13.9737 14.0229 14.0778 14.1383 14.2042 14.2752 14.3511 14.4311 14.5147 14.6012 14.6898 14.7796 14.8698 14.9597 15.0485 15.1355 15.2202 15.3021 15.3808 14.065 14.1178 14.1754 14.2376 14.3043 14.375 14.4494 14.5271 14.6074 14.6898 14.7737 14.8585 14.9434 15.0279 15.1114 15.1933 15.2731 15.3506 15.4252 14.1594 14.2152 14.2748 14.3381 14.4047 14.4745 14.5469 14.6217 14.6984 14.7765 14.8556 14.9352 15.0148 15.0939 15.1721 15.249 15.3241 15.3972 15.4679 14.2562 14.3143 14.3752 14.4388 14.5048 14.5729 14.6429 14.7144 14.7871 14.8607 14.9349 15.0093 15.0836 15.1574 15.2304 15.3023 15.3728 15.4416 15.5085 14.6764 14.7246 14.774 14.8245 14.8758 14.9277 14.98 15.0325 15.0849 15.137 15.1886 15.2393 15.2891 15.3376 15.3847 15.4301 15.4736 15.5152 15.5546 15.5917 14.329 14.2711 14.3898 14.4531 14.5188 14.5865 14.6561 14.7272 14.7994 14.8725 14.9461 15.0199 15.0936 15.1668 15.2391 15.3104 15.3802 15.4483 15.5145 15.5783 14.6005 
