# vtk DataFile Version 3.0
This file was generated by ESMC 
ASCII
DATASET UNSTRUCTURED_GRID
POINTS 440 double
0.653614 0.457665 0.60277
0.605821 0.489348 0.627311
0.667039 0.401919 0.627311
0.555491 0.519228 0.649486
0.502809 0.547163 0.669175
0.447978 0.573016 0.686271
0.39122 0.596658 0.700676
0.332772 0.617968 0.712305
0.272884 0.63684 0.721089
0.211821 0.653175 0.726976
0.149857 0.666894 0.729928
0.0872719 0.677929 0.729928
0.0243523 0.686231 0.726976
-0.0386153 0.691765 0.721089
-0.101346 0.694515 0.712305
-0.163558 0.69448 0.700675
-0.224979 0.691677 0.686271
-0.285345 0.686136 0.669175
-0.344405 0.677904 0.649486
-0.401919 0.66704 0.627311
-0.457665 0.653614 0.60277
0.677904 0.344405 0.649486
0.686136 0.285345 0.669175
0.691677 0.224979 0.686271
0.69448 0.163558 0.700676
0.694515 0.101346 0.712305
0.691765 0.0386152 0.721089
0.686231 -0.0243523 0.726976
0.677929 -0.0872721 0.729928
0.666894 -0.149857 0.729928
0.653175 -0.211821 0.726976
0.636839 -0.272884 0.721089
0.617968 -0.332772 0.712305
0.596657 -0.391221 0.700676
0.573016 -0.447979 0.686271
0.547163 -0.50281 0.669175
0.519228 -0.555492 0.649486
0.489347 -0.605822 0.627311
0.457665 -0.653614 0.60277
0.618902 0.43336 0.655103
0.567707 0.463328 0.680468
0.513625 0.491626 0.703202
0.456866 0.51806 0.72311
0.397678 0.542436 0.74001
0.336347 0.564575 0.753742
0.273193 0.584306 0.764167
0.20857 0.601482 0.77118
0.142853 0.615975 0.774705
0.0764378 0.627686 0.774705
0.00972734 0.636543 0.77118
-0.0568733 0.642506 0.764167
-0.122967 0.645564 0.753742
-0.188171 0.645737 0.74001
-0.252127 0.643074 0.723109
-0.314504 0.637648 0.703202
-0.375003 0.629553 0.680468
-0.43336 0.618902 0.655103
-0.489348 0.605822 0.627311
0.629553 0.375003 0.680468
0.577661 0.404483 0.709014
0.52237 0.432612 0.734831
0.46388 0.459149 0.757627
0.402455 0.48385 0.777122
0.338424 0.50648 0.793062
0.272176 0.526812 0.805226
0.204152 0.544646 0.813439
0.13484 0.55981 0.817576
0.0647581 0.572167 0.817576
-0.00555996 0.581624 0.813439
-0.0755812 0.588131 0.805226
-0.144789 0.591683 0.793062
-0.212698 0.592318 0.777122
-0.278867 0.590115 0.757627
-0.342905 0.585183 0.734831
-0.404483 0.577661 0.709015
-0.463328 0.567707 0.680468
-0.519228 0.555491 0.649486
0.637648 0.314504 0.703202
0.585183 0.342905 0.734831
0.528842 0.370299 0.763678
0.468806 0.396418 0.78935
0.405344 0.420983 0.811461
0.338818 0.443712 0.829651
0.26968 0.464338 0.843601
0.198464 0.482609 0.853054
0.12577 0.498312 0.857827
0.0522474 0.511276 0.857827
-0.0214332 0.521383 0.853054
-0.0946041 0.528571 0.843601
-0.166627 0.532836 0.829651
-0.236915 0.53423 0.811461
-0.304951 0.532852 0.78935
-0.370299 0.528842 0.763678
-0.432612 0.52237 0.734831
-0.491626 0.513625 0.703202
-0.547163 0.502809 0.669175
0.643074 0.252127 0.72311
0.590115 0.278867 0.757627
0.532852 0.304951 0.78935
0.471439 0.330106 0.817787
0.406142 0.354036 0.842441
0.337348 0.376436 0.862839
0.265566 0.397005 0.878556
0.191418 0.415458 0.889243
0.11562 0.431545 0.894651
0.0389501 0.445064 0.894651
-0.0377796 0.455872 0.889243
-0.113767 0.463892 0.878556
-0.188255 0.469114 0.862839
-0.260562 0.471594 0.842441
-0.330105 0.471439 0.817787
-0.396418 0.468806 0.78935
-0.459149 0.46388 0.757627
-0.51806 0.456866 0.72311
-0.573016 0.447978 0.686271
0.645737 0.188171 0.74001
0.592318 0.212698 0.777122
0.53423 0.236915 0.811461
0.471593 0.260562 0.842441
0.404665 0.28335 0.869459
0.333853 0.304971 0.891928
0.259714 0.325111 0.909314
0.182953 0.343465 0.921173
0.104395 0.35976 0.927186
0.0249461 0.373769 0.927186
-0.0544482 0.385325 0.921173
-0.132857 0.394331 0.909314
-0.209413 0.400764 0.891928
-0.28335 0.404666 0.869459
-0.354036 0.406142 0.842441
-0.420982 0.405344 0.811461
-0.48385 0.402455 0.777122
-0.542436 0.397678 0.74001
-0.596658 0.39122 0.700676
0.645564 0.122967 0.753742
0.591683 0.144789 0.793062
0.532836 0.166627 0.829651
0.469114 0.188255 0.862839
0.400763 0.209413 0.891928
0.328204 0.229811 0.916226
0.252038 0.249145 0.935096
0.173043 0.267111 0.948002
0.0921402 0.283427 0.954557
0.010354 0.297848 0.954557
-0.0712497 0.310186 0.948002
-0.151626 0.320322 0.935096
-0.229811 0.328204 0.916226
-0.304971 0.333853 0.891928
-0.376436 0.337348 0.86284
-0.443712 0.338818 0.829651
-0.506479 0.338424 0.793062
-0.564574 0.336347 0.753742
-0.617969 0.332772 0.712305
0.642506 0.0568733 0.764168
0.588131 0.0755813 0.805226
0.52857 0.0946041 0.843601
0.463892 0.113767 0.878557
0.394331 0.132857 0.909314
0.320321 0.151626 0.935096
0.242501 0.169801 0.955176
0.161706 0.187099 0.96894
0.0789431 0.203244 0.97594
-0.00466869 0.217987 0.97594
-0.0879627 0.231122 0.96894
-0.169801 0.242501 0.955176
-0.249145 0.252038 0.935096
-0.32511 0.259714 0.909314
-0.397005 0.265567 0.878557
-0.464337 0.26968 0.843601
-0.526812 0.272176 0.805226
-0.584306 0.273193 0.764167
-0.636839 0.272884 0.721089
0.636543 -0.00972717 0.77118
0.581624 0.00555995 0.813439
0.521382 0.0214331 0.853054
0.455872 0.0377797 0.889243
0.385325 0.0544483 0.921173
0.310186 0.0712498 0.948002
0.231122 0.0879628 0.96894
0.149016 0.104342 0.983314
0.0649356 0.120137 0.990631
-0.0199303 0.135101 0.990631
-0.104342 0.149016 0.983314
-0.187099 0.161706 0.96894
-0.267111 0.173043 0.948002
-0.343465 0.182953 0.921173
-0.415458 0.191418 0.889243
-0.482609 0.198464 0.853054
-0.544646 0.204152 0.813439
-0.601482 0.20857 0.77118
-0.653175 0.211821 0.726976
0.627686 -0.0764377 0.774705
0.572167 -0.064758 0.817577
0.511276 -0.0522475 0.857827
0.445064 -0.0389501 0.894651
0.373769 -0.0249461 0.927186
0.297848 -0.010354 0.954557
0.217987 0.00466868 0.97594
0.135101 0.0199303 0.990631
0.0502905 0.035214 0.998114
-0.0352138 0.0502906 0.998114
-0.120137 0.0649354 0.990631
-0.203244 0.078943 0.97594
-0.283426 0.0921401 0.954557
-0.35976 0.104395 0.927186
-0.431545 0.11562 0.894652
-0.498312 0.12577 0.857827
-0.55981 0.13484 0.817577
-0.615975 0.142853 0.774705
-0.666894 0.149857 0.729928
0.615975 -0.142853 0.774705
0.55981 -0.13484 0.817577
0.498312 -0.12577 0.857827
0.431545 -0.11562 0.894652
0.35976 -0.104395 0.927186
0.283426 -0.0921404 0.954557
0.203244 -0.0789433 0.97594
0.120136 -0.0649356 0.990631
0.0352137 -0.0502907 0.998114
-0.0502906 -0.0352139 0.998114
-0.135101 -0.0199304 0.990631
-0.217987 -0.00466877 0.97594
-0.297848 0.0103538 0.954557
-0.373769 0.0249459 0.927186
-0.445064 0.03895 0.894651
-0.511276 0.0522472 0.857827
-0.572167 0.064758 0.817577
-0.627686 0.0764376 0.774705
-0.677929 0.0872718 0.729928
0.601482 -0.20857 0.77118
0.544646 -0.204152 0.813439
0.482608 -0.198464 0.853054
0.415457 -0.191419 0.889243
0.343464 -0.182954 0.921173
0.267111 -0.173043 0.948002
0.187099 -0.161707 0.96894
0.104342 -0.149017 0.983314
0.0199301 -0.135101 0.990631
-0.0649356 -0.120137 0.990631
-0.149017 -0.104343 0.983314
-0.231122 -0.0879629 0.96894
-0.310186 -0.0712499 0.948002
-0.385325 -0.0544484 0.921173
-0.455872 -0.0377797 0.889243
-0.521382 -0.0214332 0.853054
-0.581624 -0.00556006 0.813439
-0.636543 0.00972708 0.77118
-0.686231 0.0243521 0.726976
0.584306 -0.273194 0.764167
0.526812 -0.272176 0.805226
0.464337 -0.269681 0.843601
0.397005 -0.265567 0.878557
0.32511 -0.259715 0.909314
0.249144 -0.252039 0.935096
0.169801 -0.242501 0.955176
0.0879625 -0.231122 0.96894
0.00466853 -0.217987 0.97594
-0.0789432 -0.203245 0.97594
-0.161706 -0.187099 0.96894
-0.242501 -0.169801 0.955176
-0.320321 -0.151626 0.935096
-0.394331 -0.132857 0.909314
-0.463892 -0.113767 0.878557
-0.52857 -0.0946041 0.843601
-0.588131 -0.0755812 0.805226
-0.642506 -0.0568734 0.764167
-0.691765 -0.0386153 0.721089
0.564574 -0.336347 0.753742
0.506479 -0.338425 0.793062
0.443712 -0.338819 0.829651
0.376436 -0.337349 0.862839
0.304971 -0.333853 0.891928
0.229811 -0.328204 0.916226
0.151626 -0.320322 0.935096
0.0712496 -0.310186 0.948002
-0.0103543 -0.297848 0.954557
-0.0921405 -0.283427 0.954557
-0.173043 -0.267111 0.948002
-0.252038 -0.249145 0.935096
-0.328204 -0.229811 0.916226
-0.400763 -0.209413 0.891928
-0.469114 -0.188255 0.862839
-0.532836 -0.166627 0.829651
-0.591683 -0.144789 0.793062
-0.645564 -0.122967 0.753742
-0.694515 -0.101346 0.712305
0.542436 -0.397679 0.74001
0.48385 -0.402456 0.777122
0.420982 -0.405345 0.811461
0.354035 -0.406143 0.842441
0.283349 -0.404666 0.869459
0.209413 -0.400764 0.891928
0.132857 -0.394332 0.909314
0.054448 -0.385325 0.921173
-0.0249464 -0.373769 0.927186
-0.104395 -0.35976 0.927186
-0.182954 -0.343465 0.921173
-0.259714 -0.325111 0.909314
-0.333853 -0.304971 0.891928
-0.404666 -0.28335 0.869459
-0.471593 -0.260562 0.842441
-0.53423 -0.236915 0.811461
-0.592318 -0.212698 0.777122
-0.645737 -0.188171 0.74001
-0.69448 -0.163558 0.700675
0.518059 -0.456867 0.72311
0.459148 -0.46388 0.757627
0.396418 -0.468806 0.78935
0.330105 -0.47144 0.817787
0.260561 -0.471594 0.842441
0.188255 -0.469114 0.862839
0.113767 -0.463892 0.878556
0.0377794 -0.455872 0.889243
-0.0389503 -0.445064 0.894651
-0.11562 -0.431545 0.894651
-0.191419 -0.415458 0.889243
-0.265567 -0.397005 0.878556
-0.337349 -0.376436 0.862839
-0.406142 -0.354036 0.842441
-0.471439 -0.330105 0.817787
-0.532852 -0.304951 0.78935
-0.590115 -0.278867 0.757627
-0.643074 -0.252127 0.72311
-0.691677 -0.224979 0.686271
0.491626 -0.513626 0.703202
0.432611 -0.52237 0.734831
0.370299 -0.528842 0.763678
0.304951 -0.532852 0.78935
0.236914 -0.53423 0.811461
0.166627 -0.532836 0.829651
0.0946037 -0.528571 0.843601
0.0214329 -0.521383 0.853054
-0.0522477 -0.511276 0.857827
-0.12577 -0.498312 0.857827
-0.198464 -0.482609 0.853054
-0.269681 -0.464338 0.843601
-0.338819 -0.443713 0.829651
-0.405344 -0.420983 0.811461
-0.468806 -0.396418 0.78935
-0.528842 -0.370299 0.763678
-0.585183 -0.342905 0.734831
-0.637648 -0.314504 0.703202
-0.686136 -0.285345 0.669175
0.463327 -0.567707 0.680468
0.404482 -0.577662 0.709014
0.342905 -0.585183 0.734831
0.278866 -0.590115 0.757626
0.212698 -0.592319 0.777122
0.144789 -0.591683 0.793062
0.075581 -0.588131 0.805226
0.00555967 -0.581624 0.813438
-0.0647583 -0.572167 0.817576
-0.13484 -0.55981 0.817576
-0.204152 -0.544647 0.813438
-0.272176 -0.526812 0.805226
-0.338425 -0.50648 0.793062
-0.402456 -0.483851 0.777122
-0.46388 -0.459149 0.757626
-0.52237 -0.432612 0.734831
-0.577661 -0.404483 0.709014
-0.629553 -0.375003 0.680468
-0.677904 -0.344405 0.649485
0.433359 -0.618902 0.655103
0.375002 -0.629553 0.680468
0.314503 -0.637648 0.703202
0.252127 -0.643074 0.723109
0.188171 -0.645738 0.74001
0.122966 -0.645564 0.753742
0.0568729 -0.642506 0.764167
-0.00972766 -0.636544 0.771179
-0.076438 -0.627686 0.774705
-0.142854 -0.615976 0.774704
-0.20857 -0.601482 0.771179
-0.273193 -0.584306 0.764167
-0.336347 -0.564575 0.753742
-0.397678 -0.542437 0.74001
-0.456866 -0.51806 0.723109
-0.513626 -0.491626 0.703202
-0.567707 -0.463328 0.680468
-0.618902 -0.43336 0.655103
-0.66704 -0.401919 0.627311
0.401919 -0.66704 0.627311
0.344404 -0.677904 0.649486
0.285345 -0.686136 0.669175
0.224979 -0.691677 0.686271
0.163558 -0.69448 0.700675
0.101345 -0.694515 0.712305
0.038615 -0.691765 0.721089
-0.0243525 -0.686231 0.726976
-0.0872723 -0.677929 0.729928
-0.149857 -0.666894 0.729928
-0.211821 -0.653175 0.726976
-0.272884 -0.636839 0.721089
-0.332772 -0.617968 0.712305
-0.39122 -0.596658 0.700675
-0.447978 -0.573016 0.686271
-0.502809 -0.547163 0.669175
-0.555492 -0.519228 0.649485
-0.605822 -0.489348 0.627311
-0.653614 -0.457665 0.60277
-0.495638 0.660309 0.564211
-0.528935 0.612802 0.587113
-0.560281 0.56273 0.6078
-0.589523 0.510278 0.626162
-0.616515 0.455648 0.642101
-0.641119 0.39906 0.655528
-0.66321 0.340749 0.666365
-0.682671 0.280965 0.67455
-0.699404 0.219972 0.680034
-0.713321 0.158043 0.682785
-0.724357 0.0954582 0.682785
-0.732459 0.0325035 0.680034
-0.737597 -0.0305339 0.67455
-0.739757 -0.0933683 0.666365
-0.738942 -0.155718 0.655528
-0.735175 -0.217309 0.642101
-0.728495 -0.277876 0.626162
-0.718956 -0.337166 0.6078
-0.706627 -0.394939 0.587113
-0.691587 -0.45097 0.564211
0.394939 -0.706626 0.587113
0.45097 -0.691587 0.564211
0.337166 -0.718956 0.6078
0.277876 -0.728495 0.626162
0.217309 -0.735175 0.642102
0.155718 -0.738942 0.655528
0.0933684 -0.739756 0.666365
0.0305338 -0.737597 0.67455
-0.0325036 -0.732459 0.680035
-0.0954581 -0.724357 0.682785
-0.158043 -0.713321 0.682785
-0.219973 -0.699403 0.680035
-0.280966 -0.682671 0.67455
-0.340749 -0.66321 0.666365
-0.39906 -0.641119 0.655528
-0.455649 -0.616514 0.642102
-0.510278 -0.589522 0.626163
-0.56273 -0.56028 0.6078
-0.612802 -0.528934 0.587113
-0.660309 -0.495638 0.564211
CELLS 400 2000
4 0 1 39 2 
4 1 3 40 39 
4 3 4 41 40 
4 4 5 42 41 
4 5 6 43 42 
4 6 7 44 43 
4 7 8 45 44 
4 8 9 46 45 
4 9 10 47 46 
4 10 11 48 47 
4 11 12 49 48 
4 12 13 50 49 
4 13 14 51 50 
4 14 15 52 51 
4 15 16 53 52 
4 16 17 54 53 
4 17 18 55 54 
4 18 19 56 55 
4 19 20 57 56 
4 20 400 401 57 
4 2 39 58 21 
4 39 40 59 58 
4 40 41 60 59 
4 41 42 61 60 
4 42 43 62 61 
4 43 44 63 62 
4 44 45 64 63 
4 45 46 65 64 
4 46 47 66 65 
4 47 48 67 66 
4 48 49 68 67 
4 49 50 69 68 
4 50 51 70 69 
4 51 52 71 70 
4 52 53 72 71 
4 53 54 73 72 
4 54 55 74 73 
4 55 56 75 74 
4 56 57 76 75 
4 57 401 402 76 
4 21 58 77 22 
4 58 59 78 77 
4 59 60 79 78 
4 60 61 80 79 
4 61 62 81 80 
4 62 63 82 81 
4 63 64 83 82 
4 64 65 84 83 
4 65 66 85 84 
4 66 67 86 85 
4 67 68 87 86 
4 68 69 88 87 
4 69 70 89 88 
4 70 71 90 89 
4 71 72 91 90 
4 72 73 92 91 
4 73 74 93 92 
4 74 75 94 93 
4 75 76 95 94 
4 76 402 403 95 
4 22 77 96 23 
4 77 78 97 96 
4 78 79 98 97 
4 79 80 99 98 
4 80 81 100 99 
4 81 82 101 100 
4 82 83 102 101 
4 83 84 103 102 
4 84 85 104 103 
4 85 86 105 104 
4 86 87 106 105 
4 87 88 107 106 
4 88 89 108 107 
4 89 90 109 108 
4 90 91 110 109 
4 91 92 111 110 
4 92 93 112 111 
4 93 94 113 112 
4 94 95 114 113 
4 95 403 404 114 
4 23 96 115 24 
4 96 97 116 115 
4 97 98 117 116 
4 98 99 118 117 
4 99 100 119 118 
4 100 101 120 119 
4 101 102 121 120 
4 102 103 122 121 
4 103 104 123 122 
4 104 105 124 123 
4 105 106 125 124 
4 106 107 126 125 
4 107 108 127 126 
4 108 109 128 127 
4 109 110 129 128 
4 110 111 130 129 
4 111 112 131 130 
4 112 113 132 131 
4 113 114 133 132 
4 114 404 405 133 
4 24 115 134 25 
4 115 116 135 134 
4 116 117 136 135 
4 117 118 137 136 
4 118 119 138 137 
4 119 120 139 138 
4 120 121 140 139 
4 121 122 141 140 
4 122 123 142 141 
4 123 124 143 142 
4 124 125 144 143 
4 125 126 145 144 
4 126 127 146 145 
4 127 128 147 146 
4 128 129 148 147 
4 129 130 149 148 
4 130 131 150 149 
4 131 132 151 150 
4 132 133 152 151 
4 133 405 406 152 
4 25 134 153 26 
4 134 135 154 153 
4 135 136 155 154 
4 136 137 156 155 
4 137 138 157 156 
4 138 139 158 157 
4 139 140 159 158 
4 140 141 160 159 
4 141 142 161 160 
4 142 143 162 161 
4 143 144 163 162 
4 144 145 164 163 
4 145 146 165 164 
4 146 147 166 165 
4 147 148 167 166 
4 148 149 168 167 
4 149 150 169 168 
4 150 151 170 169 
4 151 152 171 170 
4 152 406 407 171 
4 26 153 172 27 
4 153 154 173 172 
4 154 155 174 173 
4 155 156 175 174 
4 156 157 176 175 
4 157 158 177 176 
4 158 159 178 177 
4 159 160 179 178 
4 160 161 180 179 
4 161 162 181 180 
4 162 163 182 181 
4 163 164 183 182 
4 164 165 184 183 
4 165 166 185 184 
4 166 167 186 185 
4 167 168 187 186 
4 168 169 188 187 
4 169 170 189 188 
4 170 171 190 189 
4 171 407 408 190 
4 27 172 191 28 
4 172 173 192 191 
4 173 174 193 192 
4 174 175 194 193 
4 175 176 195 194 
4 176 177 196 195 
4 177 178 197 196 
4 178 179 198 197 
4 179 180 199 198 
4 180 181 200 199 
4 181 182 201 200 
4 182 183 202 201 
4 183 184 203 202 
4 184 185 204 203 
4 185 186 205 204 
4 186 187 206 205 
4 187 188 207 206 
4 188 189 208 207 
4 189 190 209 208 
4 190 408 409 209 
4 28 191 210 29 
4 191 192 211 210 
4 192 193 212 211 
4 193 194 213 212 
4 194 195 214 213 
4 195 196 215 214 
4 196 197 216 215 
4 197 198 217 216 
4 198 199 218 217 
4 199 200 219 218 
4 200 201 220 219 
4 201 202 221 220 
4 202 203 222 221 
4 203 204 223 222 
4 204 205 224 223 
4 205 206 225 224 
4 206 207 226 225 
4 207 208 227 226 
4 208 209 228 227 
4 209 409 410 228 
4 29 210 229 30 
4 210 211 230 229 
4 211 212 231 230 
4 212 213 232 231 
4 213 214 233 232 
4 214 215 234 233 
4 215 216 235 234 
4 216 217 236 235 
4 217 218 237 236 
4 218 219 238 237 
4 219 220 239 238 
4 220 221 240 239 
4 221 222 241 240 
4 222 223 242 241 
4 223 224 243 242 
4 224 225 244 243 
4 225 226 245 244 
4 226 227 246 245 
4 227 228 247 246 
4 228 410 411 247 
4 30 229 248 31 
4 229 230 249 248 
4 230 231 250 249 
4 231 232 251 250 
4 232 233 252 251 
4 233 234 253 252 
4 234 235 254 253 
4 235 236 255 254 
4 236 237 256 255 
4 237 238 257 256 
4 238 239 258 257 
4 239 240 259 258 
4 240 241 260 259 
4 241 242 261 260 
4 242 243 262 261 
4 243 244 263 262 
4 244 245 264 263 
4 245 246 265 264 
4 246 247 266 265 
4 247 411 412 266 
4 31 248 267 32 
4 248 249 268 267 
4 249 250 269 268 
4 250 251 270 269 
4 251 252 271 270 
4 252 253 272 271 
4 253 254 273 272 
4 254 255 274 273 
4 255 256 275 274 
4 256 257 276 275 
4 257 258 277 276 
4 258 259 278 277 
4 259 260 279 278 
4 260 261 280 279 
4 261 262 281 280 
4 262 263 282 281 
4 263 264 283 282 
4 264 265 284 283 
4 265 266 285 284 
4 266 412 413 285 
4 32 267 286 33 
4 267 268 287 286 
4 268 269 288 287 
4 269 270 289 288 
4 270 271 290 289 
4 271 272 291 290 
4 272 273 292 291 
4 273 274 293 292 
4 274 275 294 293 
4 275 276 295 294 
4 276 277 296 295 
4 277 278 297 296 
4 278 279 298 297 
4 279 280 299 298 
4 280 281 300 299 
4 281 282 301 300 
4 282 283 302 301 
4 283 284 303 302 
4 284 285 304 303 
4 285 413 414 304 
4 33 286 305 34 
4 286 287 306 305 
4 287 288 307 306 
4 288 289 308 307 
4 289 290 309 308 
4 290 291 310 309 
4 291 292 311 310 
4 292 293 312 311 
4 293 294 313 312 
4 294 295 314 313 
4 295 296 315 314 
4 296 297 316 315 
4 297 298 317 316 
4 298 299 318 317 
4 299 300 319 318 
4 300 301 320 319 
4 301 302 321 320 
4 302 303 322 321 
4 303 304 323 322 
4 304 414 415 323 
4 34 305 324 35 
4 305 306 325 324 
4 306 307 326 325 
4 307 308 327 326 
4 308 309 328 327 
4 309 310 329 328 
4 310 311 330 329 
4 311 312 331 330 
4 312 313 332 331 
4 313 314 333 332 
4 314 315 334 333 
4 315 316 335 334 
4 316 317 336 335 
4 317 318 337 336 
4 318 319 338 337 
4 319 320 339 338 
4 320 321 340 339 
4 321 322 341 340 
4 322 323 342 341 
4 323 415 416 342 
4 35 324 343 36 
4 324 325 344 343 
4 325 326 345 344 
4 326 327 346 345 
4 327 328 347 346 
4 328 329 348 347 
4 329 330 349 348 
4 330 331 350 349 
4 331 332 351 350 
4 332 333 352 351 
4 333 334 353 352 
4 334 335 354 353 
4 335 336 355 354 
4 336 337 356 355 
4 337 338 357 356 
4 338 339 358 357 
4 339 340 359 358 
4 340 341 360 359 
4 341 342 361 360 
4 342 416 417 361 
4 36 343 362 37 
4 343 344 363 362 
4 344 345 364 363 
4 345 346 365 364 
4 346 347 366 365 
4 347 348 367 366 
4 348 349 368 367 
4 349 350 369 368 
4 350 351 370 369 
4 351 352 371 370 
4 352 353 372 371 
4 353 354 373 372 
4 354 355 374 373 
4 355 356 375 374 
4 356 357 376 375 
4 357 358 377 376 
4 358 359 378 377 
4 359 360 379 378 
4 360 361 380 379 
4 361 417 418 380 
4 37 362 381 38 
4 362 363 382 381 
4 363 364 383 382 
4 364 365 384 383 
4 365 366 385 384 
4 366 367 386 385 
4 367 368 387 386 
4 368 369 388 387 
4 369 370 389 388 
4 370 371 390 389 
4 371 372 391 390 
4 372 373 392 391 
4 373 374 393 392 
4 374 375 394 393 
4 375 376 395 394 
4 376 377 396 395 
4 377 378 397 396 
4 378 379 398 397 
4 379 380 399 398 
4 380 418 419 399 
4 38 381 420 421 
4 381 382 422 420 
4 382 383 423 422 
4 383 384 424 423 
4 384 385 425 424 
4 385 386 426 425 
4 386 387 427 426 
4 387 388 428 427 
4 388 389 429 428 
4 389 390 430 429 
4 390 391 431 430 
4 391 392 432 431 
4 392 393 433 432 
4 393 394 434 433 
4 394 395 435 434 
4 395 396 436 435 
4 396 397 437 436 
4 397 398 438 437 
4 398 399 439 438 
4 399 419 439 439 
CELL_TYPES 400
9
9
9
9
9
9
9
9
9
9
9
9
9
9
9
9
9
9
9
9
9
9
9
9
9
9
9
9
9
9
9
9
9
9
9
9
9
9
9
9
9
9
9
9
9
9
9
9
9
9
9
9
9
9
9
9
9
9
9
9
9
9
9
9
9
9
9
9
9
9
9
9
9
9
9
9
9
9
9
9
9
9
9
9
9
9
9
9
9
9
9
9
9
9
9
9
9
9
9
9
9
9
9
9
9
9
9
9
9
9
9
9
9
9
9
9
9
9
9
9
9
9
9
9
9
9
9
9
9
9
9
9
9
9
9
9
9
9
9
9
9
9
9
9
9
9
9
9
9
9
9
9
9
9
9
9
9
9
9
9
9
9
9
9
9
9
9
9
9
9
9
9
9
9
9
9
9
9
9
9
9
9
9
9
9
9
9
9
9
9
9
9
9
9
9
9
9
9
9
9
9
9
9
9
9
9
9
9
9
9
9
9
9
9
9
9
9
9
9
9
9
9
9
9
9
9
9
9
9
9
9
9
9
9
9
9
9
9
9
9
9
9
9
9
9
9
9
9
9
9
9
9
9
9
9
9
9
9
9
9
9
9
9
9
9
9
9
9
9
9
9
9
9
9
9
9
9
9
9
9
9
9
9
9
9
9
9
9
9
9
9
9
9
9
9
9
9
9
9
9
9
9
9
9
9
9
9
9
9
9
9
9
9
9
9
9
9
9
9
9
9
9
9
9
9
9
9
9
9
9
9
9
9
9
9
9
9
9
9
9
9
9
9
9
9
9
9
9
9
9
9
9
9
9
9
9
9
9
9
9
9
9
9
9
9
9
9
9
9
9
9
9
9
9
9
9
9
9
9
9
9
9
9
9
9
9
9
9
9
9
9
9
9
9
9
9
9
9
9
9
CELL_DATA 400
SCALARS _ELEM_NUM double 1
LOOKUP_TABLE default
801 802 803 804 805 806 807 808 809 810 811 812 813 814 815 816 817 818 819 820 821 822 823 824 825 826 827 828 829 830 831 832 833 834 835 836 837 838 839 840 841 842 843 844 845 846 847 848 849 850 851 852 853 854 855 856 857 858 859 860 861 862 863 864 865 866 867 868 869 870 871 872 873 874 875 876 877 878 879 880 881 882 883 884 885 886 887 888 889 890 891 892 893 894 895 896 897 898 899 900 901 902 903 904 905 906 907 908 909 910 911 912 913 914 915 916 917 918 919 920 921 922 923 924 925 926 927 928 929 930 931 932 933 934 935 936 937 938 939 940 941 942 943 944 945 946 947 948 949 950 951 952 953 954 955 956 957 958 959 960 961 962 963 964 965 966 967 968 969 970 971 972 973 974 975 976 977 978 979 980 981 982 983 984 985 986 987 988 989 990 991 992 993 994 995 996 997 998 999 1000 1001 1002 1003 1004 1005 1006 1007 1008 1009 1010 1011 1012 1013 1014 1015 1016 1017 1018 1019 1020 1021 1022 1023 1024 1025 1026 1027 1028 1029 1030 1031 1032 1033 1034 1035 1036 1037 1038 1039 1040 1041 1042 1043 1044 1045 1046 1047 1048 1049 1050 1051 1052 1053 1054 1055 1056 1057 1058 1059 1060 1061 1062 1063 1064 1065 1066 1067 1068 1069 1070 1071 1072 1073 1074 1075 1076 1077 1078 1079 1080 1081 1082 1083 1084 1085 1086 1087 1088 1089 1090 1091 1092 1093 1094 1095 1096 1097 1098 1099 1100 1101 1102 1103 1104 1105 1106 1107 1108 1109 1110 1111 1112 1113 1114 1115 1116 1117 1118 1119 1120 1121 1122 1123 1124 1125 1126 1127 1128 1129 1130 1131 1132 1133 1134 1135 1136 1137 1138 1139 1140 1141 1142 1143 1144 1145 1146 1147 1148 1149 1150 1151 1152 1153 1154 1155 1156 1157 1158 1159 1160 1161 1162 1163 1164 1165 1166 1167 1168 1169 1170 1171 1172 1173 1174 1175 1176 1177 1178 1179 1180 1181 1182 1183 1184 1185 1186 1187 1188 1189 1190 1191 1192 1193 1194 1195 1196 1197 1198 1199 1200 
POINT_DATA 440
SCALARS _NODE_NUM double 1
LOOKUP_TABLE default
801 802 821 803 804 805 806 807 808 809 810 811 812 813 814 815 816 817 818 819 820 841 861 881 901 921 941 961 981 1001 1021 1041 1061 1081 1101 1121 1141 1161 1181 822 823 824 825 826 827 828 829 830 831 832 833 834 835 836 837 838 839 840 842 843 844 845 846 847 848 849 850 851 852 853 854 855 856 857 858 859 860 862 863 864 865 866 867 868 869 870 871 872 873 874 875 876 877 878 879 880 882 883 884 885 886 887 888 889 890 891 892 893 894 895 896 897 898 899 900 902 903 904 905 906 907 908 909 910 911 912 913 914 915 916 917 918 919 920 922 923 924 925 926 927 928 929 930 931 932 933 934 935 936 937 938 939 940 942 943 944 945 946 947 948 949 950 951 952 953 954 955 956 957 958 959 960 962 963 964 965 966 967 968 969 970 971 972 973 974 975 976 977 978 979 980 982 983 984 985 986 987 988 989 990 991 992 993 994 995 996 997 998 999 1000 1002 1003 1004 1005 1006 1007 1008 1009 1010 1011 1012 1013 1014 1015 1016 1017 1018 1019 1020 1022 1023 1024 1025 1026 1027 1028 1029 1030 1031 1032 1033 1034 1035 1036 1037 1038 1039 1040 1042 1043 1044 1045 1046 1047 1048 1049 1050 1051 1052 1053 1054 1055 1056 1057 1058 1059 1060 1062 1063 1064 1065 1066 1067 1068 1069 1070 1071 1072 1073 1074 1075 1076 1077 1078 1079 1080 1082 1083 1084 1085 1086 1087 1088 1089 1090 1091 1092 1093 1094 1095 1096 1097 1098 1099 1100 1102 1103 1104 1105 1106 1107 1108 1109 1110 1111 1112 1113 1114 1115 1116 1117 1118 1119 1120 1122 1123 1124 1125 1126 1127 1128 1129 1130 1131 1132 1133 1134 1135 1136 1137 1138 1139 1140 1142 1143 1144 1145 1146 1147 1148 1149 1150 1151 1152 1153 1154 1155 1156 1157 1158 1159 1160 1162 1163 1164 1165 1166 1167 1168 1169 1170 1171 1172 1173 1174 1175 1176 1177 1178 1179 1180 1182 1183 1184 1185 1186 1187 1188 1189 1190 1191 1192 1193 1194 1195 1196 1197 1198 1199 1200 1201 1221 1241 1261 1281 1301 1321 1341 1361 1381 1401 1421 1441 1461 1481 1501 1521 1541 1561 1581 1961 1981 1941 1921 1901 1881 1861 1841 1821 1801 1781 1761 1741 1721 1701 1681 1661 1641 1621 1601 
SCALARS array_000 double 1
LOOKUP_TABLE default
16.714 16.7225 16.6963 16.7242 16.7191 16.7073 16.6886 16.663 16.6308 16.592 16.5467 16.4951 16.4376 16.3742 16.3055 16.2316 16.153 16.07 15.983 15.8924 15.7987 16.6718 16.6407 16.6029 16.5587 16.5082 16.4515 16.3889 16.3206 16.247 16.1683 16.085 15.9975 15.9061 15.8113 15.7135 15.6132 15.5108 15.4068 16.7074 16.7115 16.7085 16.698 16.6801 16.6547 16.6217 16.5812 16.5335 16.4788 16.4175 16.3498 16.2763 16.1976 16.1141 16.0263 15.935 15.8406 15.7438 16.685 16.6912 16.6898 16.6807 16.6634 16.638 16.6042 16.5622 16.5122 16.4545 16.3895 16.3178 16.24 16.1567 16.0689 15.9771 15.8822 15.7848 15.6857 16.6554 16.6629 16.6628 16.6546 16.6378 16.6122 16.5776 16.5341 16.4819 16.4214 16.353 16.2776 16.1959 16.1088 16.0173 15.9222 15.8246 15.7252 15.6248 16.6183 16.6266 16.6272 16.6193 16.6026 16.5766 16.5411 16.4961 16.4418 16.3787 16.3073 16.2287 16.1437 16.0535 15.9591 15.8617 15.7624 15.6619 15.5612 16.5739 16.5821 16.5826 16.5746 16.5575 16.5308 16.4941 16.4476 16.3913 16.3259 16.2521 16.1708 16.0833 15.9908 15.8945 15.7958 15.6957 15.5953 15.4952 16.5223 16.5295 16.5291 16.5202 16.5021 16.4742 16.4363 16.3882 16.3301 16.2628 16.1869 16.1038 16.0146 15.9208 15.8238 15.7248 15.625 15.5255 15.4271 16.4635 16.4689 16.4668 16.4562 16.4365 16.407 16.3675 16.3177 16.2581 16.1893 16.1121 16.0279 15.938 15.8439 15.7471 15.6489 15.5506 15.4531 15.3571 16.398 16.4006 16.3959 16.3829 16.3609 16.3294 16.288 16.2367 16.1757 16.1058 16.028 15.9435 15.8539 15.7607 15.6652 15.5689 15.4729 15.3783 15.2856 16.326 16.325 16.3169 16.3008 16.276 16.2421 16.1986 16.1457 16.0836 16.0132 15.9354 15.8516 15.7633 15.6718 15.5787 15.4853 15.3926 15.3016 15.2129 16.2478 16.2425 16.2304 16.2106 16.1826 16.1458 16.1002 16.0458 15.983 15.9126 15.8356 15.7533 15.6671 15.5784 15.4885 15.3988 15.3102 15.2235 15.1393 16.1641 16.1539 16.1372 16.1133 16.0817 16.0421 15.9943 15.9386 15.8755 15.8056 15.73 15.6499 15.5666 15.4814 15.3956 15.3102 15.2263 15.1444 15.0651 16.0753 16.0599 16.0383 16.01 15.9747 15.9322 15.8825 15.8258 15.7626 15.6938 15.6201 15.5429 15.4631 15.3821 15.3009 15.2204 15.1415 15.0648 14.9907 15.982 15.9611 15.9345 15.9019 15.863 15.8178 15.7664 15.7091 15.6464 15.579 15.5078 15.4339 15.3582 15.2818 15.2055 15.1302 15.0566 14.9852 14.9164 15.8848 15.8585 15.8271 15.7903 15.7481 15.7006 15.6478 15.5903 15.5285 15.463 15.3948 15.3245 15.2531 15.1814 15.1103 15.0403 14.9721 14.9061 14.8426 15.7843 15.7529 15.717 15.6765 15.6314 15.582 15.5284 15.4712 15.4106 15.3475 15.2824 15.216 15.1491 15.0823 15.0162 14.9515 14.8886 14.8279 14.7696 15.6812 15.6451 15.6051 15.5614 15.5141 15.4634 15.4096 15.3531 15.2943 15.2337 15.172 15.1096 15.0471 14.9851 14.9241 14.8645 14.8067 14.751 14.6977 15.5761 15.5358 15.4926 15.4464 15.3975 15.3462 15.2927 15.2374 15.1807 15.1229 15.0646 15.0062 14.9482 14.8908 14.8346 14.7798 14.7269 14.6759 14.6272 15.4696 15.4259 15.3801 15.3322 15.2824 15.2311 15.1785 15.1249 15.0706 15.0159 14.9611 14.9067 14.8528 14.7999 14.7482 14.6979 14.6494 14.6028 14.5584 15.3622 15.316 15.2684 15.2196 15.1698 15.1191 15.0679 15.0164 14.9647 14.9132 14.862 14.8114 14.7616 14.7128 14.6653 14.6192 14.5748 14.5321 14.4915 15.7289 15.671 15.6102 15.5469 15.4812 15.4135 15.3439 15.2728 15.2006 15.1275 15.0539 14.9801 14.9064 14.8332 14.7609 14.6896 14.6198 14.5517 14.4855 14.4217 15.2754 15.3236 15.226 15.1755 15.1242 15.0723 15.02 14.9675 14.9151 14.863 14.8114 14.7607 14.7109 14.6624 14.6153 14.5699 14.5264 14.4848 14.4454 14.4083 
