# vtk DataFile Version 3.0
This file was generated by ESMC 
ASCII
DATASET UNSTRUCTURED_GRID
POINTS 440 double
0.660309 0.495638 -0.564211
0.612802 0.528935 -0.587113
0.687125 0.51583 -0.511644
0.56273 0.56028 -0.6078
0.510278 0.589522 -0.626163
0.455648 0.616515 -0.642102
0.39906 0.641119 -0.655528
0.340749 0.66321 -0.666365
0.280965 0.682671 -0.67455
0.219972 0.699403 -0.680035
0.158043 0.713321 -0.682785
0.0954582 0.724357 -0.682785
0.0325035 0.732459 -0.680035
-0.030534 0.737597 -0.67455
-0.0933684 0.739756 -0.666365
-0.155718 0.738942 -0.655528
-0.217309 0.735175 -0.642102
-0.277876 0.728495 -0.626163
-0.337166 0.718956 -0.6078
-0.394939 0.706626 -0.587113
-0.45097 0.691586 -0.564211
0.711348 0.534075 -0.456889
0.732851 0.550277 -0.400157
0.751516 0.564345 -0.34167
0.76724 0.576199 -0.281668
0.779932 0.58577 -0.220407
0.789518 0.593 -0.158152
0.795941 0.597845 -0.0951805
0.799162 0.600275 -0.0317751
0.799162 0.600275 0.0317753
0.795941 0.597845 0.0951806
0.789518 0.593 0.158153
0.779932 0.58577 0.220407
0.76724 0.576199 0.281669
0.751516 0.564345 0.34167
0.732851 0.550277 0.400157
0.711348 0.534075 0.45689
0.687125 0.515829 0.511644
0.660309 0.495638 0.564211
0.639888 0.552379 -0.534247
0.589517 0.587017 -0.55487
0.536174 0.619508 -0.573348
0.480063 0.649616 -0.589523
0.421426 0.677117 -0.603252
0.360542 0.701796 -0.614404
0.297729 0.723458 -0.622869
0.233335 0.741933 -0.628562
0.167734 0.75708 -0.631424
0.101318 0.76879 -0.631424
0.0344925 0.776994 -0.628562
-0.0323372 0.781658 -0.622869
-0.098771 0.782785 -0.614404
-0.164423 0.780418 -0.603252
-0.22893 0.774631 -0.589523
-0.291955 0.765529 -0.573348
-0.353193 0.753242 -0.55487
-0.412373 0.737921 -0.534247
-0.469262 0.719732 -0.511644
0.664602 0.573778 -0.478627
0.614191 0.611654 -0.498648
0.56024 0.647382 -0.516748
0.502934 0.680633 -0.532725
0.442522 0.711081 -0.546385
0.37932 0.738412 -0.557552
0.313704 0.762334 -0.566072
0.246108 0.782592 -0.571823
0.177011 0.798977 -0.57472
0.10693 0.811334 -0.57472
0.0363961 0.819569 -0.571823
-0.0340525 0.823652 -0.566072
-0.103893 0.823615 -0.557552
-0.172631 0.81955 -0.546385
-0.239813 0.811599 -0.532725
-0.305036 0.799953 -0.516748
-0.367953 0.784832 -0.498648
-0.428278 0.766482 -0.478626
-0.485784 0.745162 -0.456889
0.686747 0.592958 -0.420453
0.636499 0.633935 -0.439312
0.582182 0.672805 -0.456506
0.523947 0.709141 -0.471803
0.462038 0.74251 -0.484974
0.39679 0.772485 -0.495807
0.328632 0.798668 -0.504113
0.25808 0.820707 -0.50974
0.185721 0.838313 -0.512581
0.112199 0.851277 -0.512581
0.0381825 0.859481 -0.50974
-0.0356526 0.862902 -0.504113
-0.108656 0.861609 -0.495807
-0.180221 0.855757 -0.484974
-0.249809 0.845575 -0.471803
-0.31696 0.831348 -0.456506
-0.381295 0.8134 -0.439312
-0.442527 0.792079 -0.420453
-0.500449 0.767741 -0.400157
0.706133 0.609754 -0.359966
0.656192 0.65361 -0.377103
0.601704 0.69543 -0.392847
0.542779 0.734696 -0.406955
0.47964 0.770864 -0.419183
0.412632 0.803392 -0.429297
0.342226 0.831766 -0.437089
0.269014 0.855527 -0.442386
0.193689 0.8743 -0.445066
0.11702 0.887819 -0.445066
0.0398162 0.89594 -0.442386
-0.0371073 0.898652 -0.437089
-0.112971 0.89607 -0.429297
-0.187064 0.888421 -0.419183
-0.258765 0.87603 -0.406955
-0.327566 0.859286 -0.392847
-0.393071 0.838623 -0.377103
-0.455 0.814493 -0.359966
-0.513177 0.787344 -0.34167
0.722588 0.624014 -0.297444
0.67303 0.670437 -0.312322
0.618515 0.714919 -0.326084
0.559103 0.756852 -0.338495
0.494988 0.795592 -0.349315
0.426514 0.830481 -0.358311
0.354186 0.860889 -0.36527
0.278661 0.886248 -0.370017
0.200728 0.906096 -0.372423
0.12128 0.920105 -0.372423
0.041259 0.928108 -0.370017
-0.0383852 0.93011 -0.36527
-0.116751 0.926273 -0.358311
-0.193028 0.916907 -0.349315
-0.266526 0.902433 -0.338495
-0.336698 0.883348 -0.326084
-0.403139 0.860194 -0.312322
-0.465586 0.833521 -0.297444
-0.523898 0.803862 -0.281669
0.735955 0.635601 -0.2332
0.686795 0.684196 -0.245334
0.632342 0.730951 -0.256622
0.572606 0.775184 -0.266856
0.507749 0.816157 -0.275823
0.438108 0.853109 -0.283312
0.36421 0.885301 -0.289126
0.286765 0.912062 -0.293102
0.20665 0.932845 -0.295121
0.124864 0.947266 -0.295121
0.0424723 0.955137 -0.293102
-0.0394546 0.956478 -0.289126
-0.119907 0.951502 -0.283312
-0.197986 0.940597 -0.275823
-0.272945 0.924278 -0.266856
-0.344207 0.903143 -0.256622
-0.411368 0.877831 -0.245334
-0.474183 0.848981 -0.2332
-0.532552 0.817196 -0.220407
0.746102 0.644398 -0.167579
0.697297 0.694696 -0.176561
0.642944 0.743247 -0.184952
0.583008 0.78931 -0.192593
0.517621 0.832071 -0.199314
0.447111 0.870683 -0.204946
0.372015 0.904315 -0.209331
0.293089 0.932208 -0.212337
0.211276 0.953742 -0.213865
0.127664 0.968485 -0.213865
0.04342 0.976231 -0.212337
-0.0402865 0.977015 -0.209331
-0.122356 0.971095 -0.204946
-0.20182 0.958928 -0.199314
-0.277889 0.941109 -0.192593
-0.349964 0.918323 -0.184952
-0.417646 0.89129 -0.176561
-0.48071 0.860718 -0.167579
-0.539087 0.827269 -0.158152
0.752926 0.650315 -0.100955
0.704387 0.701785 -0.106474
0.650127 0.751579 -0.111645
0.59008 0.798914 -0.116367
0.524355 0.842926 -0.120532
0.453267 0.882703 -0.124031
0.377365 0.917348 -0.12676
0.29743 0.946038 -0.128634
0.214454 0.968099 -0.129588
0.129588 0.983064 -0.129588
0.0440709 0.990712 -0.128634
-0.0408562 0.991092 -0.12676
-0.12403 0.984496 -0.124031
-0.204435 0.971431 -0.120532
-0.281249 0.952553 -0.116367
-0.353865 0.928609 -0.111645
-0.421883 0.900377 -0.106474
-0.485099 0.868612 -0.100955
-0.543465 0.834018 -0.0951805
0.756357 0.65329 -0.03372
0.707959 0.705357 -0.0355815
0.653754 0.755786 -0.0373284
0.593659 0.803775 -0.0389261
0.527769 0.84843 -0.0403372
0.456394 0.888808 -0.0415239
0.380086 0.923977 -0.0424508
0.29964 0.953079 -0.0430875
0.216073 0.975412 -0.0434118
0.130568 0.990488 -0.0434118
0.0444023 0.998084 -0.0430875
-0.0411457 0.998251 -0.0424508
-0.12488 0.991303 -0.0415239
-0.205761 0.977771 -0.0403372
-0.28295 0.958344 -0.0389261
-0.355834 0.933803 -0.0373284
-0.424018 0.904954 -0.0355815
-0.487305 0.872581 -0.03372
-0.545661 0.837403 -0.0317751
0.756357 0.65329 0.0337202
0.707959 0.705357 0.0355816
0.653754 0.755786 0.0373286
0.593659 0.803775 0.0389263
0.527769 0.84843 0.0403374
0.456394 0.888808 0.0415242
0.380086 0.923977 0.0424511
0.29964 0.953079 0.0430877
0.216073 0.975412 0.0434119
0.130568 0.990488 0.0434119
0.0444023 0.998084 0.0430877
-0.0411457 0.998251 0.0424511
-0.12488 0.991303 0.0415242
-0.205761 0.977771 0.0403374
-0.28295 0.958344 0.0389263
-0.355834 0.933803 0.0373286
-0.424018 0.904954 0.0355816
-0.487305 0.872581 0.0337202
-0.545661 0.837403 0.0317753
0.752926 0.650315 0.100955
0.704387 0.701785 0.106474
0.650127 0.751579 0.111645
0.59008 0.798914 0.116367
0.524355 0.842926 0.120532
0.453267 0.882703 0.124031
0.377365 0.917348 0.126761
0.29743 0.946038 0.128634
0.214454 0.968099 0.129588
0.129588 0.983064 0.129588
0.0440709 0.990712 0.128634
-0.0408562 0.991092 0.126761
-0.12403 0.984496 0.124031
-0.204435 0.971431 0.120532
-0.281249 0.952553 0.116367
-0.353865 0.928609 0.111645
-0.421883 0.900377 0.106474
-0.485099 0.868612 0.100955
-0.543465 0.834018 0.0951806
0.746102 0.644398 0.167579
0.697297 0.694696 0.176561
0.642944 0.743247 0.184952
0.583008 0.78931 0.192593
0.517621 0.832071 0.199314
0.447111 0.870683 0.204946
0.372015 0.904315 0.209331
0.293089 0.932208 0.212337
0.211276 0.953742 0.213865
0.127664 0.968485 0.213865
0.04342 0.976231 0.212337
-0.0402865 0.977015 0.209331
-0.122356 0.971095 0.204946
-0.20182 0.958928 0.199314
-0.277889 0.941109 0.192593
-0.349964 0.918323 0.184952
-0.417646 0.89129 0.176561
-0.48071 0.860718 0.167579
-0.539087 0.827269 0.158153
0.735955 0.635601 0.2332
0.686795 0.684196 0.245334
0.632342 0.730951 0.256622
0.572606 0.775184 0.266856
0.507749 0.816157 0.275824
0.438108 0.853109 0.283312
0.36421 0.885301 0.289126
0.286765 0.912062 0.293102
0.20665 0.932845 0.295121
0.124864 0.947266 0.295121
0.0424723 0.955137 0.293102
-0.0394546 0.956478 0.289126
-0.119907 0.951502 0.283312
-0.197986 0.940597 0.275824
-0.272945 0.924278 0.266856
-0.344207 0.903143 0.256622
-0.411368 0.877831 0.245334
-0.474183 0.848981 0.2332
-0.532552 0.817196 0.220407
0.722588 0.624014 0.297444
0.67303 0.670437 0.312322
0.618515 0.714919 0.326084
0.559103 0.756852 0.338495
0.494988 0.795592 0.349315
0.426514 0.830481 0.358311
0.354186 0.860889 0.365271
0.278661 0.886248 0.370017
0.200728 0.906096 0.372423
0.12128 0.920104 0.372423
0.041259 0.928108 0.370017
-0.0383852 0.93011 0.365271
-0.116751 0.926273 0.358311
-0.193028 0.916907 0.349315
-0.266526 0.902433 0.338495
-0.336698 0.883348 0.326084
-0.403139 0.860194 0.312322
-0.465586 0.833521 0.297444
-0.523898 0.803862 0.281669
0.706133 0.609754 0.359966
0.656192 0.65361 0.377103
0.601704 0.69543 0.392847
0.542779 0.734696 0.406955
0.47964 0.770864 0.419183
0.412632 0.803392 0.429298
0.342227 0.831766 0.437089
0.269014 0.855527 0.442386
0.193689 0.8743 0.445066
0.11702 0.887819 0.445066
0.0398162 0.89594 0.442386
-0.0371073 0.898652 0.437089
-0.112971 0.89607 0.429298
-0.187064 0.888421 0.419183
-0.258765 0.87603 0.406955
-0.327566 0.859286 0.392847
-0.393071 0.838623 0.377103
-0.455 0.814493 0.359966
-0.513177 0.787344 0.34167
0.686746 0.592958 0.420453
0.636499 0.633935 0.439312
0.582182 0.672805 0.456506
0.523947 0.709141 0.471803
0.462038 0.74251 0.484975
0.39679 0.772485 0.495807
0.328632 0.798668 0.504113
0.25808 0.820707 0.50974
0.185721 0.838312 0.512582
0.112199 0.851276 0.512582
0.0381826 0.859481 0.50974
-0.0356526 0.862901 0.504113
-0.108656 0.861609 0.495807
-0.180221 0.855757 0.484974
-0.249809 0.845575 0.471803
-0.316959 0.831347 0.456506
-0.381295 0.8134 0.439312
-0.442527 0.792079 0.420453
-0.500449 0.767741 0.400157
0.664602 0.573778 0.478627
0.614191 0.611654 0.498648
0.560239 0.647382 0.516748
0.502934 0.680633 0.532725
0.442522 0.711081 0.546386
0.37932 0.738412 0.557552
0.313704 0.762333 0.566072
0.246108 0.782592 0.571823
0.177011 0.798977 0.57472
0.10693 0.811334 0.57472
0.0363961 0.819569 0.571823
-0.0340525 0.823652 0.566072
-0.103893 0.823615 0.557552
-0.172631 0.819549 0.546386
-0.239813 0.811599 0.532725
-0.305036 0.799953 0.516748
-0.367953 0.784832 0.498648
-0.428278 0.766482 0.478627
-0.485784 0.745161 0.45689
0.639888 0.552379 0.534248
0.589516 0.587017 0.55487
0.536174 0.619508 0.573348
0.480063 0.649616 0.589523
0.421426 0.677117 0.603252
0.360542 0.701796 0.614404
0.297729 0.723458 0.622869
0.233335 0.741933 0.628562
0.167734 0.757079 0.631424
0.101318 0.76879 0.631424
0.0344925 0.776994 0.628562
-0.0323372 0.781657 0.622869
-0.098771 0.782785 0.614404
-0.164423 0.780418 0.603252
-0.22893 0.774631 0.589523
-0.291955 0.765529 0.573348
-0.353193 0.753242 0.55487
-0.412373 0.737921 0.534248
-0.469262 0.719731 0.511644
0.612802 0.528935 0.587114
0.56273 0.56028 0.6078
0.510278 0.589522 0.626163
0.455648 0.616515 0.642102
0.39906 0.641119 0.655528
0.340749 0.66321 0.666366
0.280965 0.682671 0.674551
0.219972 0.699403 0.680035
0.158043 0.713321 0.682785
0.0954582 0.724356 0.682785
0.0325035 0.732459 0.680035
-0.030534 0.737597 0.674551
-0.0933684 0.739756 0.666366
-0.155718 0.738942 0.655528
-0.217309 0.735175 0.642102
-0.277876 0.728495 0.626163
-0.337166 0.718956 0.6078
-0.394939 0.706626 0.587114
-0.45097 0.691586 0.564211
-0.495638 0.660309 -0.564211
-0.51583 0.687125 -0.511643
-0.534075 0.711348 -0.456889
-0.550277 0.732851 -0.400156
-0.564345 0.751516 -0.341669
-0.576199 0.76724 -0.281668
-0.58577 0.779932 -0.220407
-0.593 0.789518 -0.158152
-0.597845 0.795941 -0.0951804
-0.600275 0.799162 -0.0317751
-0.600275 0.799162 0.0317751
-0.597845 0.795941 0.0951804
-0.593 0.789518 0.158152
-0.58577 0.779932 0.220407
-0.5762 0.76724 0.281668
-0.564345 0.751516 0.341669
-0.550277 0.732851 0.400156
-0.534075 0.711348 0.456889
-0.51583 0.687125 0.511643
-0.495638 0.660309 0.564211
0.605821 0.489348 0.627311
0.653614 0.457665 0.60277
0.555491 0.519228 0.649486
0.502809 0.547163 0.669175
0.447978 0.573016 0.686271
0.39122 0.596658 0.700676
0.332772 0.617968 0.712305
0.272884 0.63684 0.721089
0.211821 0.653175 0.726976
0.149857 0.666894 0.729928
0.0872719 0.677929 0.729928
0.0243523 0.686231 0.726976
-0.0386153 0.691765 0.721089
-0.101346 0.694515 0.712305
-0.163558 0.69448 0.700675
-0.224979 0.691677 0.686271
-0.285345 0.686136 0.669175
-0.344405 0.677904 0.649486
-0.401919 0.66704 0.627311
-0.457665 0.653614 0.60277
CELLS 400 2000
4 0 1 39 2 
4 1 3 40 39 
4 3 4 41 40 
4 4 5 42 41 
4 5 6 43 42 
4 6 7 44 43 
4 7 8 45 44 
4 8 9 46 45 
4 9 10 47 46 
4 10 11 48 47 
4 11 12 49 48 
4 12 13 50 49 
4 13 14 51 50 
4 14 15 52 51 
4 15 16 53 52 
4 16 17 54 53 
4 17 18 55 54 
4 18 19 56 55 
4 19 20 57 56 
4 20 400 401 57 
4 2 39 58 21 
4 39 40 59 58 
4 40 41 60 59 
4 41 42 61 60 
4 42 43 62 61 
4 43 44 63 62 
4 44 45 64 63 
4 45 46 65 64 
4 46 47 66 65 
4 47 48 67 66 
4 48 49 68 67 
4 49 50 69 68 
4 50 51 70 69 
4 51 52 71 70 
4 52 53 72 71 
4 53 54 73 72 
4 54 55 74 73 
4 55 56 75 74 
4 56 57 76 75 
4 57 401 402 76 
4 21 58 77 22 
4 58 59 78 77 
4 59 60 79 78 
4 60 61 80 79 
4 61 62 81 80 
4 62 63 82 81 
4 63 64 83 82 
4 64 65 84 83 
4 65 66 85 84 
4 66 67 86 85 
4 67 68 87 86 
4 68 69 88 87 
4 69 70 89 88 
4 70 71 90 89 
4 71 72 91 90 
4 72 73 92 91 
4 73 74 93 92 
4 74 75 94 93 
4 75 76 95 94 
4 76 402 403 95 
4 22 77 96 23 
4 77 78 97 96 
4 78 79 98 97 
4 79 80 99 98 
4 80 81 100 99 
4 81 82 101 100 
4 82 83 102 101 
4 83 84 103 102 
4 84 85 104 103 
4 85 86 105 104 
4 86 87 106 105 
4 87 88 107 106 
4 88 89 108 107 
4 89 90 109 108 
4 90 91 110 109 
4 91 92 111 110 
4 92 93 112 111 
4 93 94 113 112 
4 94 95 114 113 
4 95 403 404 114 
4 23 96 115 24 
4 96 97 116 115 
4 97 98 117 116 
4 98 99 118 117 
4 99 100 119 118 
4 100 101 120 119 
4 101 102 121 120 
4 102 103 122 121 
4 103 104 123 122 
4 104 105 124 123 
4 105 106 125 124 
4 106 107 126 125 
4 107 108 127 126 
4 108 109 128 127 
4 109 110 129 128 
4 110 111 130 129 
4 111 112 131 130 
4 112 113 132 131 
4 113 114 133 132 
4 114 404 405 133 
4 24 115 134 25 
4 115 116 135 134 
4 116 117 136 135 
4 117 118 137 136 
4 118 119 138 137 
4 119 120 139 138 
4 120 121 140 139 
4 121 122 141 140 
4 122 123 142 141 
4 123 124 143 142 
4 124 125 144 143 
4 125 126 145 144 
4 126 127 146 145 
4 127 128 147 146 
4 128 129 148 147 
4 129 130 149 148 
4 130 131 150 149 
4 131 132 151 150 
4 132 133 152 151 
4 133 405 406 152 
4 25 134 153 26 
4 134 135 154 153 
4 135 136 155 154 
4 136 137 156 155 
4 137 138 157 156 
4 138 139 158 157 
4 139 140 159 158 
4 140 141 160 159 
4 141 142 161 160 
4 142 143 162 161 
4 143 144 163 162 
4 144 145 164 163 
4 145 146 165 164 
4 146 147 166 165 
4 147 148 167 166 
4 148 149 168 167 
4 149 150 169 168 
4 150 151 170 169 
4 151 152 171 170 
4 152 406 407 171 
4 26 153 172 27 
4 153 154 173 172 
4 154 155 174 173 
4 155 156 175 174 
4 156 157 176 175 
4 157 158 177 176 
4 158 159 178 177 
4 159 160 179 178 
4 160 161 180 179 
4 161 162 181 180 
4 162 163 182 181 
4 163 164 183 182 
4 164 165 184 183 
4 165 166 185 184 
4 166 167 186 185 
4 167 168 187 186 
4 168 169 188 187 
4 169 170 189 188 
4 170 171 190 189 
4 171 407 408 190 
4 27 172 191 28 
4 172 173 192 191 
4 173 174 193 192 
4 174 175 194 193 
4 175 176 195 194 
4 176 177 196 195 
4 177 178 197 196 
4 178 179 198 197 
4 179 180 199 198 
4 180 181 200 199 
4 181 182 201 200 
4 182 183 202 201 
4 183 184 203 202 
4 184 185 204 203 
4 185 186 205 204 
4 186 187 206 205 
4 187 188 207 206 
4 188 189 208 207 
4 189 190 209 208 
4 190 408 409 209 
4 28 191 210 29 
4 191 192 211 210 
4 192 193 212 211 
4 193 194 213 212 
4 194 195 214 213 
4 195 196 215 214 
4 196 197 216 215 
4 197 198 217 216 
4 198 199 218 217 
4 199 200 219 218 
4 200 201 220 219 
4 201 202 221 220 
4 202 203 222 221 
4 203 204 223 222 
4 204 205 224 223 
4 205 206 225 224 
4 206 207 226 225 
4 207 208 227 226 
4 208 209 228 227 
4 209 409 410 228 
4 29 210 229 30 
4 210 211 230 229 
4 211 212 231 230 
4 212 213 232 231 
4 213 214 233 232 
4 214 215 234 233 
4 215 216 235 234 
4 216 217 236 235 
4 217 218 237 236 
4 218 219 238 237 
4 219 220 239 238 
4 220 221 240 239 
4 221 222 241 240 
4 222 223 242 241 
4 223 224 243 242 
4 224 225 244 243 
4 225 226 245 244 
4 226 227 246 245 
4 227 228 247 246 
4 228 410 411 247 
4 30 229 248 31 
4 229 230 249 248 
4 230 231 250 249 
4 231 232 251 250 
4 232 233 252 251 
4 233 234 253 252 
4 234 235 254 253 
4 235 236 255 254 
4 236 237 256 255 
4 237 238 257 256 
4 238 239 258 257 
4 239 240 259 258 
4 240 241 260 259 
4 241 242 261 260 
4 242 243 262 261 
4 243 244 263 262 
4 244 245 264 263 
4 245 246 265 264 
4 246 247 266 265 
4 247 411 412 266 
4 31 248 267 32 
4 248 249 268 267 
4 249 250 269 268 
4 250 251 270 269 
4 251 252 271 270 
4 252 253 272 271 
4 253 254 273 272 
4 254 255 274 273 
4 255 256 275 274 
4 256 257 276 275 
4 257 258 277 276 
4 258 259 278 277 
4 259 260 279 278 
4 260 261 280 279 
4 261 262 281 280 
4 262 263 282 281 
4 263 264 283 282 
4 264 265 284 283 
4 265 266 285 284 
4 266 412 413 285 
4 32 267 286 33 
4 267 268 287 286 
4 268 269 288 287 
4 269 270 289 288 
4 270 271 290 289 
4 271 272 291 290 
4 272 273 292 291 
4 273 274 293 292 
4 274 275 294 293 
4 275 276 295 294 
4 276 277 296 295 
4 277 278 297 296 
4 278 279 298 297 
4 279 280 299 298 
4 280 281 300 299 
4 281 282 301 300 
4 282 283 302 301 
4 283 284 303 302 
4 284 285 304 303 
4 285 413 414 304 
4 33 286 305 34 
4 286 287 306 305 
4 287 288 307 306 
4 288 289 308 307 
4 289 290 309 308 
4 290 291 310 309 
4 291 292 311 310 
4 292 293 312 311 
4 293 294 313 312 
4 294 295 314 313 
4 295 296 315 314 
4 296 297 316 315 
4 297 298 317 316 
4 298 299 318 317 
4 299 300 319 318 
4 300 301 320 319 
4 301 302 321 320 
4 302 303 322 321 
4 303 304 323 322 
4 304 414 415 323 
4 34 305 324 35 
4 305 306 325 324 
4 306 307 326 325 
4 307 308 327 326 
4 308 309 328 327 
4 309 310 329 328 
4 310 311 330 329 
4 311 312 331 330 
4 312 313 332 331 
4 313 314 333 332 
4 314 315 334 333 
4 315 316 335 334 
4 316 317 336 335 
4 317 318 337 336 
4 318 319 338 337 
4 319 320 339 338 
4 320 321 340 339 
4 321 322 341 340 
4 322 323 342 341 
4 323 415 416 342 
4 35 324 343 36 
4 324 325 344 343 
4 325 326 345 344 
4 326 327 346 345 
4 327 328 347 346 
4 328 329 348 347 
4 329 330 349 348 
4 330 331 350 349 
4 331 332 351 350 
4 332 333 352 351 
4 333 334 353 352 
4 334 335 354 353 
4 335 336 355 354 
4 336 337 356 355 
4 337 338 357 356 
4 338 339 358 357 
4 339 340 359 358 
4 340 341 360 359 
4 341 342 361 360 
4 342 416 417 361 
4 36 343 362 37 
4 343 344 363 362 
4 344 345 364 363 
4 345 346 365 364 
4 346 347 366 365 
4 347 348 367 366 
4 348 349 368 367 
4 349 350 369 368 
4 350 351 370 369 
4 351 352 371 370 
4 352 353 372 371 
4 353 354 373 372 
4 354 355 374 373 
4 355 356 375 374 
4 356 357 376 375 
4 357 358 377 376 
4 358 359 378 377 
4 359 360 379 378 
4 360 361 380 379 
4 361 417 418 380 
4 37 362 381 38 
4 362 363 382 381 
4 363 364 383 382 
4 364 365 384 383 
4 365 366 385 384 
4 366 367 386 385 
4 367 368 387 386 
4 368 369 388 387 
4 369 370 389 388 
4 370 371 390 389 
4 371 372 391 390 
4 372 373 392 391 
4 373 374 393 392 
4 374 375 394 393 
4 375 376 395 394 
4 376 377 396 395 
4 377 378 397 396 
4 378 379 398 397 
4 379 380 399 398 
4 380 418 419 399 
4 38 381 420 421 
4 381 382 422 420 
4 382 383 423 422 
4 383 384 424 423 
4 384 385 425 424 
4 385 386 426 425 
4 386 387 427 426 
4 387 388 428 427 
4 388 389 429 428 
4 389 390 430 429 
4 390 391 431 430 
4 391 392 432 431 
4 392 393 433 432 
4 393 394 434 433 
4 394 395 435 434 
4 395 396 436 435 
4 396 397 437 436 
4 397 398 438 437 
4 398 399 439 438 
4 399 419 419 439 
CELL_TYPES 400
9
9
9
9
9
9
9
9
9
9
9
9
9
9
9
9
9
9
9
9
9
9
9
9
9
9
9
9
9
9
9
9
9
9
9
9
9
9
9
9
9
9
9
9
9
9
9
9
9
9
9
9
9
9
9
9
9
9
9
9
9
9
9
9
9
9
9
9
9
9
9
9
9
9
9
9
9
9
9
9
9
9
9
9
9
9
9
9
9
9
9
9
9
9
9
9
9
9
9
9
9
9
9
9
9
9
9
9
9
9
9
9
9
9
9
9
9
9
9
9
9
9
9
9
9
9
9
9
9
9
9
9
9
9
9
9
9
9
9
9
9
9
9
9
9
9
9
9
9
9
9
9
9
9
9
9
9
9
9
9
9
9
9
9
9
9
9
9
9
9
9
9
9
9
9
9
9
9
9
9
9
9
9
9
9
9
9
9
9
9
9
9
9
9
9
9
9
9
9
9
9
9
9
9
9
9
9
9
9
9
9
9
9
9
9
9
9
9
9
9
9
9
9
9
9
9
9
9
9
9
9
9
9
9
9
9
9
9
9
9
9
9
9
9
9
9
9
9
9
9
9
9
9
9
9
9
9
9
9
9
9
9
9
9
9
9
9
9
9
9
9
9
9
9
9
9
9
9
9
9
9
9
9
9
9
9
9
9
9
9
9
9
9
9
9
9
9
9
9
9
9
9
9
9
9
9
9
9
9
9
9
9
9
9
9
9
9
9
9
9
9
9
9
9
9
9
9
9
9
9
9
9
9
9
9
9
9
9
9
9
9
9
9
9
9
9
9
9
9
9
9
9
9
9
9
9
9
9
9
9
9
9
9
9
9
9
9
9
9
9
9
9
9
9
9
9
9
9
9
9
9
9
9
9
9
9
9
9
9
9
9
9
9
9
9
9
9
9
9
9
CELL_DATA 400
SCALARS _ELEM_NUM double 1
LOOKUP_TABLE default
401 402 403 404 405 406 407 408 409 410 411 412 413 414 415 416 417 418 419 420 421 422 423 424 425 426 427 428 429 430 431 432 433 434 435 436 437 438 439 440 441 442 443 444 445 446 447 448 449 450 451 452 453 454 455 456 457 458 459 460 461 462 463 464 465 466 467 468 469 470 471 472 473 474 475 476 477 478 479 480 481 482 483 484 485 486 487 488 489 490 491 492 493 494 495 496 497 498 499 500 501 502 503 504 505 506 507 508 509 510 511 512 513 514 515 516 517 518 519 520 521 522 523 524 525 526 527 528 529 530 531 532 533 534 535 536 537 538 539 540 541 542 543 544 545 546 547 548 549 550 551 552 553 554 555 556 557 558 559 560 561 562 563 564 565 566 567 568 569 570 571 572 573 574 575 576 577 578 579 580 581 582 583 584 585 586 587 588 589 590 591 592 593 594 595 596 597 598 599 600 601 602 603 604 605 606 607 608 609 610 611 612 613 614 615 616 617 618 619 620 621 622 623 624 625 626 627 628 629 630 631 632 633 634 635 636 637 638 639 640 641 642 643 644 645 646 647 648 649 650 651 652 653 654 655 656 657 658 659 660 661 662 663 664 665 666 667 668 669 670 671 672 673 674 675 676 677 678 679 680 681 682 683 684 685 686 687 688 689 690 691 692 693 694 695 696 697 698 699 700 701 702 703 704 705 706 707 708 709 710 711 712 713 714 715 716 717 718 719 720 721 722 723 724 725 726 727 728 729 730 731 732 733 734 735 736 737 738 739 740 741 742 743 744 745 746 747 748 749 750 751 752 753 754 755 756 757 758 759 760 761 762 763 764 765 766 767 768 769 770 771 772 773 774 775 776 777 778 779 780 781 782 783 784 785 786 787 788 789 790 791 792 793 794 795 796 797 798 799 800 
POINT_DATA 440
SCALARS _NODE_NUM double 1
LOOKUP_TABLE default
401 402 421 403 404 405 406 407 408 409 410 411 412 413 414 415 416 417 418 419 420 441 461 481 501 521 541 561 581 601 621 641 661 681 701 721 741 761 781 422 423 424 425 426 427 428 429 430 431 432 433 434 435 436 437 438 439 440 442 443 444 445 446 447 448 449 450 451 452 453 454 455 456 457 458 459 460 462 463 464 465 466 467 468 469 470 471 472 473 474 475 476 477 478 479 480 482 483 484 485 486 487 488 489 490 491 492 493 494 495 496 497 498 499 500 502 503 504 505 506 507 508 509 510 511 512 513 514 515 516 517 518 519 520 522 523 524 525 526 527 528 529 530 531 532 533 534 535 536 537 538 539 540 542 543 544 545 546 547 548 549 550 551 552 553 554 555 556 557 558 559 560 562 563 564 565 566 567 568 569 570 571 572 573 574 575 576 577 578 579 580 582 583 584 585 586 587 588 589 590 591 592 593 594 595 596 597 598 599 600 602 603 604 605 606 607 608 609 610 611 612 613 614 615 616 617 618 619 620 622 623 624 625 626 627 628 629 630 631 632 633 634 635 636 637 638 639 640 642 643 644 645 646 647 648 649 650 651 652 653 654 655 656 657 658 659 660 662 663 664 665 666 667 668 669 670 671 672 673 674 675 676 677 678 679 680 682 683 684 685 686 687 688 689 690 691 692 693 694 695 696 697 698 699 700 702 703 704 705 706 707 708 709 710 711 712 713 714 715 716 717 718 719 720 722 723 724 725 726 727 728 729 730 731 732 733 734 735 736 737 738 739 740 742 743 744 745 746 747 748 749 750 751 752 753 754 755 756 757 758 759 760 762 763 764 765 766 767 768 769 770 771 772 773 774 775 776 777 778 779 780 782 783 784 785 786 787 788 789 790 791 792 793 794 795 796 797 798 799 800 1220 1219 1218 1217 1216 1215 1214 1213 1212 1211 1210 1209 1208 1207 1206 1205 1204 1203 1202 1201 802 801 803 804 805 806 807 808 809 810 811 812 813 814 815 816 817 818 819 820 
SCALARS array_000 double 1
LOOKUP_TABLE default
15.5917 15.5546 15.6913 15.5152 15.4736 15.4301 15.3847 15.3376 15.2891 15.2393 15.1886 15.137 15.0849 15.0325 14.98 14.9277 14.8758 14.8245 14.774 14.7246 14.6764 15.7885 15.883 15.9742 16.0618 16.1453 16.2244 16.2986 16.3677 16.4312 16.489 16.5407 16.5861 16.6251 16.6575 16.6833 16.7023 16.7146 16.7202 15.658 15.6217 15.5823 15.5402 15.4953 15.4479 15.3983 15.3467 15.2934 15.2387 15.1829 15.1265 15.0696 15.0127 14.9562 14.9002 14.8452 14.7913 14.7388 15.7598 15.7272 15.6909 15.6508 15.6072 15.5602 15.51 15.4569 15.4013 15.3435 15.2841 15.2235 15.1622 15.1005 15.0391 14.9782 14.9182 14.8596 14.8025 15.8593 15.8311 15.7985 15.7613 15.7196 15.6735 15.6232 15.569 15.5115 15.4509 15.3879 15.3231 15.2571 15.1906 15.124 15.0579 14.9928 14.9291 14.8671 15.9559 15.9327 15.9043 15.8705 15.8313 15.7867 15.7369 15.6822 15.6229 15.5598 15.4934 15.4245 15.3538 15.2822 15.2103 15.1389 15.0684 14.9995 14.9325 16.0492 16.0311 16.0073 15.9775 15.9413 15.8987 15.8498 15.7949 15.7344 15.669 15.5994 15.5265 15.4512 15.3746 15.2974 15.2206 15.1447 15.0705 14.9983 16.1384 16.1257 16.1067 16.0809 16.0481 16.0079 15.9604 15.9057 15.8444 15.777 15.7045 15.6279 15.5483 15.4668 15.3845 15.3023 15.2211 15.1416 15.0642 16.2229 16.2154 16.2012 16.1797 16.1504 16.1128 16.067 16.013 15.9512 15.8823 15.8073 15.7274 15.6438 15.5578 15.4706 15.3834 15.2971 15.2124 15.13 16.3023 16.2997 16.2901 16.2726 16.2467 16.2119 16.168 16.1148 16.053 15.9831 15.9061 15.8235 15.7364 15.6465 15.5549 15.4631 15.372 15.2826 15.1954 16.3759 16.3777 16.3722 16.3585 16.3359 16.3037 16.2616 16.2096 16.1481 16.0776 15.9994 15.9147 15.8249 15.7317 15.6365 15.5406 15.4454 15.3516 15.26 16.4434 16.4489 16.4469 16.4364 16.4165 16.3867 16.3465 16.2958 16.2349 16.1645 16.0856 15.9996 15.9079 15.8123 15.7143 15.6153 15.5165 15.419 15.3235 16.5042 16.5126 16.5134 16.5054 16.4878 16.46 16.4215 16.3721 16.3121 16.2422 16.1634 16.077 15.9845 15.8875 15.7877 15.6864 15.585 15.4845 15.3857 16.5581 16.5686 16.5711 16.5649 16.549 16.5227 16.4857 16.4376 16.3789 16.31 16.232 16.1461 16.0537 15.9564 15.8558 15.7533 15.6502 15.5476 15.4463 16.6048 16.6163 16.6199 16.6146 16.5997 16.5745 16.5386 16.4919 16.4346 16.3673 16.2907 16.2061 16.1149 16.0184 15.9182 15.8156 15.7118 15.608 15.5051 16.644 16.6558 16.6595 16.6544 16.6399 16.6153 16.5803 16.5349 16.4792 16.4138 16.3394 16.257 16.1678 16.0732 15.9744 15.8727 15.7694 15.6654 15.5616 16.6759 16.6869 16.69 16.6844 16.6697 16.6453 16.6111 16.5669 16.5131 16.4499 16.3781 16.2986 16.2124 16.1205 16.0242 15.9246 15.8227 15.7195 15.6158 16.7002 16.7097 16.7115 16.7049 16.6895 16.6651 16.6314 16.5885 16.5366 16.4761 16.4074 16.3314 16.2488 16.1605 16.0676 15.9709 15.8714 15.77 15.6674 16.717 16.7245 16.7244 16.7163 16.7 16.6753 16.6421 16.6005 16.5507 16.493 16.4278 16.3557 16.2773 16.1933 16.1045 16.0117 15.9155 15.8168 15.7163 16.7265 16.7314 16.729 16.7192 16.7018 16.6767 16.6441 16.6038 16.5562 16.5015 16.44 16.3722 16.2984 16.2192 16.1352 16.0469 15.9549 15.8598 15.7621 16.7288 16.7308 16.726 16.7143 16.6957 16.6703 16.6382 16.5994 16.5541 16.5026 16.445 16.3816 16.3128 16.2388 16.16 16.0768 15.9896 15.8988 15.8048 14.6005 14.6597 14.7204 14.7824 14.8455 14.9094 14.9738 15.0384 15.1029 15.1671 15.2307 15.2933 15.3547 15.4146 15.4727 15.5288 15.5827 15.6342 15.6829 15.7289 16.7225 16.714 16.7242 16.7191 16.7073 16.6886 16.663 16.6308 16.592 16.5467 16.4951 16.4376 16.3742 16.3055 16.2316 16.153 16.07 15.983 15.8924 15.7987 
