# vtk DataFile Version 3.0
This file was generated by ESMC 
ASCII
DATASET UNSTRUCTURED_GRID
POINTS 441 double
-0.660309 -0.495638 0.564211
-0.687125 -0.515829 0.511644
-0.612802 -0.528934 0.587113
-0.711348 -0.534075 0.456889
-0.732851 -0.550277 0.400157
-0.751516 -0.564345 0.34167
-0.76724 -0.576199 0.281668
-0.779932 -0.58577 0.220407
-0.789518 -0.593 0.158153
-0.795941 -0.597844 0.0951805
-0.799163 -0.600274 0.0317752
-0.799163 -0.600274 -0.031775
-0.795941 -0.597844 -0.0951802
-0.789518 -0.593 -0.158152
-0.779932 -0.58577 -0.220407
-0.76724 -0.576199 -0.281668
-0.751516 -0.564345 -0.341669
-0.732851 -0.550277 -0.400156
-0.711348 -0.534075 -0.456889
-0.687125 -0.515829 -0.511643
-0.66031 -0.495638 -0.564211
-0.56273 -0.56028 0.6078
-0.510278 -0.589522 0.626163
-0.455649 -0.616514 0.642102
-0.39906 -0.641119 0.655528
-0.340749 -0.66321 0.666365
-0.280966 -0.682671 0.67455
-0.219973 -0.699403 0.680035
-0.158043 -0.713321 0.682785
-0.0954581 -0.724357 0.682785
-0.0325036 -0.732459 0.680035
0.0305338 -0.737597 0.67455
0.0933684 -0.739756 0.666365
0.155718 -0.738942 0.655528
0.217309 -0.735175 0.642102
0.277876 -0.728495 0.626162
0.337166 -0.718956 0.6078
0.394939 -0.706626 0.587113
0.45097 -0.691587 0.564211
-0.639888 -0.552379 0.534247
-0.664602 -0.573777 0.478626
-0.686747 -0.592957 0.420453
-0.706134 -0.609754 0.359966
-0.722588 -0.624014 0.297444
-0.735955 -0.6356 0.2332
-0.746103 -0.644397 0.167579
-0.752927 -0.650315 0.100955
-0.756357 -0.653289 0.0337201
-0.756357 -0.653289 -0.0337199
-0.752927 -0.650315 -0.100955
-0.746103 -0.644397 -0.167579
-0.735955 -0.6356 -0.233199
-0.722589 -0.624014 -0.297443
-0.706134 -0.609754 -0.359965
-0.686747 -0.592957 -0.420452
-0.664603 -0.573777 -0.478626
-0.639889 -0.552379 -0.534247
-0.612802 -0.528935 -0.587113
-0.589517 -0.587017 0.55487
-0.614191 -0.611653 0.498648
-0.6365 -0.633935 0.439312
-0.656192 -0.653609 0.377102
-0.67303 -0.670437 0.312322
-0.686795 -0.684195 0.245334
-0.697298 -0.694695 0.176561
-0.704388 -0.701784 0.106474
-0.70796 -0.705356 0.0355816
-0.70796 -0.705356 -0.0355813
-0.704388 -0.701784 -0.106473
-0.697298 -0.694695 -0.176561
-0.686795 -0.684195 -0.245334
-0.673031 -0.670436 -0.312321
-0.656192 -0.65361 -0.377102
-0.6365 -0.633935 -0.439312
-0.614191 -0.611653 -0.498647
-0.589517 -0.587017 -0.55487
-0.562731 -0.56028 -0.6078
-0.536175 -0.619507 0.573348
-0.56024 -0.647381 0.516748
-0.582182 -0.672805 0.456506
-0.601704 -0.69543 0.392847
-0.618515 -0.714918 0.326084
-0.632342 -0.730951 0.256622
-0.642944 -0.743246 0.184952
-0.650127 -0.751578 0.111645
-0.653754 -0.755786 0.0373286
-0.653754 -0.755786 -0.0373283
-0.650127 -0.751578 -0.111645
-0.642944 -0.743247 -0.184952
-0.632342 -0.730951 -0.256621
-0.618515 -0.714918 -0.326083
-0.601705 -0.69543 -0.392846
-0.582182 -0.672805 -0.456506
-0.56024 -0.647382 -0.516748
-0.536175 -0.619508 -0.573347
-0.510279 -0.589522 -0.626162
-0.480064 -0.649616 0.589523
-0.502934 -0.680633 0.532725
-0.523948 -0.709141 0.471803
-0.54278 -0.734696 0.406955
-0.559103 -0.756852 0.338495
-0.572606 -0.775184 0.266856
-0.583008 -0.789309 0.192593
-0.590081 -0.798914 0.116367
-0.59366 -0.803774 0.0389262
-0.59366 -0.803774 -0.038926
-0.590081 -0.798914 -0.116367
-0.583008 -0.789309 -0.192593
-0.572606 -0.775184 -0.266856
-0.559104 -0.756852 -0.338494
-0.54278 -0.734696 -0.406955
-0.523948 -0.709141 -0.471803
-0.502934 -0.680633 -0.532725
-0.480064 -0.649616 -0.589523
-0.455649 -0.616514 -0.642101
-0.421426 -0.677117 0.603252
-0.442523 -0.711081 0.546385
-0.462039 -0.742509 0.484974
-0.479641 -0.770863 0.419183
-0.494988 -0.795591 0.349315
-0.507749 -0.816157 0.275823
-0.517622 -0.832071 0.199314
-0.524356 -0.842925 0.120532
-0.52777 -0.848429 0.0403373
-0.52777 -0.848429 -0.0403371
-0.524356 -0.842925 -0.120532
-0.517622 -0.832071 -0.199314
-0.507749 -0.816157 -0.275823
-0.494988 -0.795591 -0.349315
-0.479641 -0.770863 -0.419183
-0.462039 -0.742509 -0.484974
-0.442523 -0.711081 -0.546385
-0.421426 -0.677117 -0.603251
-0.399061 -0.641119 -0.655528
-0.360543 -0.701796 0.614404
-0.379321 -0.738412 0.557552
-0.396791 -0.772485 0.495807
-0.412633 -0.803392 0.429297
-0.426515 -0.830481 0.358311
-0.438109 -0.853109 0.283312
-0.447111 -0.870683 0.204946
-0.453268 -0.882703 0.124031
-0.456395 -0.888808 0.0415241
-0.456395 -0.888808 -0.0415238
-0.453268 -0.882703 -0.12403
-0.447111 -0.870683 -0.204946
-0.438109 -0.853109 -0.283311
-0.426515 -0.830481 -0.358311
-0.412633 -0.803392 -0.429297
-0.396791 -0.772485 -0.495807
-0.379321 -0.738412 -0.557552
-0.360543 -0.701796 -0.614403
-0.340749 -0.66321 -0.666365
-0.29773 -0.723458 0.622869
-0.313705 -0.762333 0.566072
-0.328632 -0.798668 0.504113
-0.342227 -0.831766 0.437089
-0.354186 -0.860889 0.36527
-0.36421 -0.885301 0.289126
-0.372016 -0.904314 0.209331
-0.377366 -0.917348 0.12676
-0.380086 -0.923976 0.0424509
-0.380086 -0.923976 -0.0424507
-0.377366 -0.917348 -0.12676
-0.372015 -0.904315 -0.209331
-0.36421 -0.885301 -0.289126
-0.354186 -0.860889 -0.36527
-0.342227 -0.831766 -0.437089
-0.328632 -0.798668 -0.504113
-0.313705 -0.762334 -0.566071
-0.29773 -0.723458 -0.622869
-0.280966 -0.682671 -0.67455
-0.233335 -0.741933 0.628562
-0.246108 -0.782592 0.571823
-0.25808 -0.820707 0.50974
-0.269015 -0.855527 0.442386
-0.278661 -0.886248 0.370016
-0.286765 -0.912062 0.293102
-0.293089 -0.932208 0.212337
-0.297431 -0.946038 0.128634
-0.29964 -0.953079 0.0430876
-0.29964 -0.953079 -0.0430874
-0.297431 -0.946038 -0.128634
-0.293089 -0.932208 -0.212336
-0.286765 -0.912062 -0.293101
-0.278661 -0.886248 -0.370016
-0.269015 -0.855527 -0.442386
-0.25808 -0.820707 -0.50974
-0.246108 -0.782592 -0.571822
-0.233335 -0.741933 -0.628562
-0.219973 -0.699404 -0.680034
-0.167734 -0.75708 0.631424
-0.177012 -0.798977 0.57472
-0.185721 -0.838313 0.512581
-0.193689 -0.8743 0.445066
-0.200729 -0.906096 0.372423
-0.20665 -0.932845 0.295121
-0.211276 -0.953742 0.213865
-0.214454 -0.968099 0.129588
-0.216073 -0.975412 0.0434119
-0.216073 -0.975412 -0.0434116
-0.214454 -0.968099 -0.129587
-0.211276 -0.953742 -0.213865
-0.20665 -0.932845 -0.295121
-0.200729 -0.906096 -0.372423
-0.193689 -0.8743 -0.445066
-0.185721 -0.838313 -0.512581
-0.177012 -0.798977 -0.57472
-0.167734 -0.75708 -0.631423
-0.158043 -0.713321 -0.682785
-0.101318 -0.76879 0.631424
-0.10693 -0.811334 0.57472
-0.112199 -0.851277 0.512581
-0.11702 -0.887819 0.445066
-0.12128 -0.920105 0.372423
-0.124864 -0.947266 0.295121
-0.127664 -0.968485 0.213865
-0.129588 -0.983064 0.129588
-0.130568 -0.990488 0.0434119
-0.130568 -0.990488 -0.0434116
-0.129588 -0.983064 -0.129587
-0.127664 -0.968485 -0.213865
-0.124864 -0.947266 -0.295121
-0.12128 -0.920105 -0.372423
-0.11702 -0.887819 -0.445066
-0.112199 -0.851277 -0.512581
-0.10693 -0.811334 -0.57472
-0.101318 -0.768791 -0.631423
-0.0954581 -0.724357 -0.682785
-0.0344925 -0.776994 0.628562
-0.0363962 -0.81957 0.571823
-0.0381826 -0.859481 0.50974
-0.0398161 -0.895941 0.442386
-0.0412589 -0.928109 0.370016
-0.0424723 -0.955137 0.293102
-0.0434201 -0.976231 0.212337
-0.0440708 -0.990712 0.128634
-0.0444026 -0.998084 0.0430876
-0.0444026 -0.998084 -0.0430874
-0.0440708 -0.990712 -0.128634
-0.0434201 -0.976232 -0.212336
-0.0424723 -0.955137 -0.293101
-0.0412589 -0.928109 -0.370016
-0.0398161 -0.895941 -0.442386
-0.0381826 -0.859481 -0.50974
-0.0363962 -0.81957 -0.571822
-0.0344925 -0.776994 -0.628562
-0.0325036 -0.732459 -0.680034
0.0323372 -0.781658 0.622869
0.0340525 -0.823652 0.566072
0.0356525 -0.862902 0.504113
0.0371073 -0.898653 0.437089
0.0383854 -0.93011 0.36527
0.0394548 -0.956478 0.289126
0.0402866 -0.977015 0.209331
0.0408562 -0.991092 0.12676
0.0411456 -0.998251 0.0424509
0.0411456 -0.998251 -0.0424507
0.0408562 -0.991092 -0.12676
0.0402866 -0.977015 -0.209331
0.0394548 -0.956478 -0.289125
0.0383854 -0.93011 -0.36527
0.0371073 -0.898653 -0.437089
0.0356525 -0.862902 -0.504113
0.0340525 -0.823653 -0.566071
0.0323372 -0.781658 -0.622869
0.0305338 -0.737597 -0.67455
0.0987708 -0.782785 0.614404
0.103893 -0.823615 0.557552
0.108655 -0.861609 0.495807
0.112972 -0.89607 0.429297
0.116751 -0.926273 0.358311
0.119907 -0.951502 0.283312
0.122356 -0.971095 0.204946
0.12403 -0.984496 0.124031
0.12488 -0.991303 0.0415241
0.12488 -0.991303 -0.0415238
0.12403 -0.984496 -0.12403
0.122356 -0.971095 -0.204946
0.119907 -0.951503 -0.283311
0.116751 -0.926274 -0.358311
0.112971 -0.89607 -0.429297
0.108655 -0.861609 -0.495807
0.103893 -0.823615 -0.557552
0.0987708 -0.782785 -0.614403
0.093368 -0.739757 -0.666365
0.164423 -0.780418 0.603252
0.172631 -0.81955 0.546385
0.180221 -0.855757 0.484974
0.187063 -0.888422 0.419183
0.193028 -0.916908 0.349315
0.197986 -0.940597 0.275823
0.20182 -0.958928 0.199314
0.204435 -0.971431 0.120532
0.205761 -0.977771 0.0403373
0.205761 -0.977771 -0.0403371
0.204435 -0.971431 -0.120532
0.20182 -0.958928 -0.199314
0.197986 -0.940597 -0.275823
0.193028 -0.916908 -0.349315
0.187063 -0.888422 -0.419183
0.180221 -0.855757 -0.484974
0.172631 -0.81955 -0.546385
0.164423 -0.780418 -0.603251
0.155718 -0.738942 -0.655528
0.228931 -0.774631 0.589523
0.239813 -0.811599 0.532725
0.24981 -0.845575 0.471803
0.258765 -0.87603 0.406955
0.266526 -0.902433 0.338495
0.272945 -0.924278 0.266856
0.277889 -0.941109 0.192593
0.281249 -0.952553 0.116367
0.28295 -0.958344 0.0389262
0.28295 -0.958344 -0.038926
0.281249 -0.952553 -0.116367
0.277889 -0.941109 -0.192593
0.272945 -0.924278 -0.266856
0.266526 -0.902433 -0.338494
0.258765 -0.87603 -0.406955
0.249809 -0.845575 -0.471803
0.239813 -0.8116 -0.532725
0.228931 -0.774631 -0.589523
0.217309 -0.735175 -0.642101
0.291955 -0.765529 0.573347
0.305036 -0.799953 0.516748
0.31696 -0.831348 0.456506
0.327566 -0.859286 0.392847
0.336698 -0.883348 0.326084
0.344207 -0.903143 0.256621
0.349965 -0.918323 0.184952
0.353865 -0.928609 0.111645
0.355834 -0.933803 0.0373285
0.355834 -0.933803 -0.0373283
0.353865 -0.928609 -0.111645
0.349965 -0.918323 -0.184952
0.344207 -0.903143 -0.256621
0.336698 -0.883348 -0.326083
0.327566 -0.859286 -0.392847
0.316959 -0.831348 -0.456506
0.305036 -0.799953 -0.516748
0.291955 -0.765529 -0.573347
0.277876 -0.728495 -0.626162
0.353193 -0.753242 0.55487
0.367953 -0.784832 0.498647
0.381295 -0.8134 0.439312
0.393071 -0.838623 0.377102
0.403139 -0.860194 0.312322
0.411368 -0.877831 0.245334
0.417645 -0.89129 0.176561
0.421883 -0.900377 0.106473
0.424018 -0.904954 0.0355815
0.424018 -0.904954 -0.0355814
0.421883 -0.900377 -0.106473
0.417646 -0.89129 -0.176561
0.411367 -0.877832 -0.245334
0.403139 -0.860194 -0.312322
0.393071 -0.838623 -0.377102
0.381296 -0.8134 -0.439312
0.367953 -0.784832 -0.498647
0.353193 -0.753243 -0.55487
0.337167 -0.718956 -0.6078
0.412374 -0.737921 0.534247
0.428278 -0.766482 0.478626
0.442528 -0.792079 0.420452
0.455 -0.814493 0.359966
0.465586 -0.833521 0.297443
0.474184 -0.848981 0.2332
0.48071 -0.860718 0.167579
0.485099 -0.868612 0.100955
0.487305 -0.872581 0.0337201
0.487305 -0.872581 -0.0337199
0.485099 -0.868612 -0.100955
0.48071 -0.860718 -0.167579
0.474184 -0.848981 -0.233199
0.465586 -0.833521 -0.297443
0.455 -0.814493 -0.359965
0.442528 -0.792079 -0.420452
0.428279 -0.766482 -0.478626
0.412374 -0.737921 -0.534247
0.394939 -0.706627 -0.587113
0.469262 -0.719732 0.511643
0.485784 -0.745162 0.456889
0.500448 -0.767741 0.400157
0.513177 -0.787345 0.341669
0.523898 -0.803862 0.281668
0.532551 -0.817196 0.220407
0.539087 -0.827269 0.158152
0.543465 -0.834018 0.0951804
0.545661 -0.837403 0.0317752
0.545661 -0.837403 -0.031775
0.543465 -0.834018 -0.0951802
0.539087 -0.827269 -0.158152
0.532551 -0.817196 -0.220407
0.523898 -0.803862 -0.281668
0.513177 -0.787345 -0.341669
0.500448 -0.767741 -0.400156
0.485784 -0.745162 -0.456889
0.469263 -0.719732 -0.511643
0.450969 -0.691587 -0.564211
-0.653614 -0.457665 -0.60277
-0.605822 -0.489347 -0.627311
-0.555492 -0.519228 -0.649485
-0.50281 -0.547163 -0.669175
-0.447979 -0.573016 -0.686271
-0.391221 -0.596658 -0.700675
-0.332772 -0.617968 -0.712305
-0.272884 -0.636839 -0.721089
-0.211821 -0.653175 -0.726976
-0.149857 -0.666894 -0.729928
-0.087272 -0.677929 -0.729928
-0.0243522 -0.686231 -0.726976
0.0386154 -0.691765 -0.721089
0.101345 -0.694515 -0.712305
0.163558 -0.69448 -0.700675
0.224979 -0.691677 -0.686271
0.285345 -0.686136 -0.669175
0.344405 -0.677904 -0.649485
0.401919 -0.66704 -0.627311
0.457665 -0.653614 -0.60277
0.515829 -0.687125 0.511644
0.495638 -0.660309 0.564211
0.534075 -0.711348 0.45689
0.550277 -0.732851 0.400157
0.564345 -0.751516 0.34167
0.576199 -0.76724 0.281669
0.58577 -0.779932 0.220407
0.593 -0.789518 0.158153
0.597844 -0.795941 0.0951805
0.600275 -0.799163 0.0317752
0.600275 -0.799163 -0.0317752
0.597844 -0.795941 -0.0951805
0.593 -0.789518 -0.158153
0.58577 -0.779932 -0.220407
0.576199 -0.76724 -0.281669
0.564345 -0.751516 -0.34167
0.550277 -0.732851 -0.400157
0.534075 -0.711348 -0.45689
0.515829 -0.687125 -0.511644
0.495638 -0.660309 -0.564211
0.457665 -0.653614 0.60277
CELLS 401 2005
4 0 1 39 2 
4 1 3 40 39 
4 3 4 41 40 
4 4 5 42 41 
4 5 6 43 42 
4 6 7 44 43 
4 7 8 45 44 
4 8 9 46 45 
4 9 10 47 46 
4 10 11 48 47 
4 11 12 49 48 
4 12 13 50 49 
4 13 14 51 50 
4 14 15 52 51 
4 15 16 53 52 
4 16 17 54 53 
4 17 18 55 54 
4 18 19 56 55 
4 19 20 57 56 
4 20 400 401 57 
4 2 39 58 21 
4 39 40 59 58 
4 40 41 60 59 
4 41 42 61 60 
4 42 43 62 61 
4 43 44 63 62 
4 44 45 64 63 
4 45 46 65 64 
4 46 47 66 65 
4 47 48 67 66 
4 48 49 68 67 
4 49 50 69 68 
4 50 51 70 69 
4 51 52 71 70 
4 52 53 72 71 
4 53 54 73 72 
4 54 55 74 73 
4 55 56 75 74 
4 56 57 76 75 
4 57 401 402 76 
4 21 58 77 22 
4 58 59 78 77 
4 59 60 79 78 
4 60 61 80 79 
4 61 62 81 80 
4 62 63 82 81 
4 63 64 83 82 
4 64 65 84 83 
4 65 66 85 84 
4 66 67 86 85 
4 67 68 87 86 
4 68 69 88 87 
4 69 70 89 88 
4 70 71 90 89 
4 71 72 91 90 
4 72 73 92 91 
4 73 74 93 92 
4 74 75 94 93 
4 75 76 95 94 
4 76 402 403 95 
4 22 77 96 23 
4 77 78 97 96 
4 78 79 98 97 
4 79 80 99 98 
4 80 81 100 99 
4 81 82 101 100 
4 82 83 102 101 
4 83 84 103 102 
4 84 85 104 103 
4 85 86 105 104 
4 86 87 106 105 
4 87 88 107 106 
4 88 89 108 107 
4 89 90 109 108 
4 90 91 110 109 
4 91 92 111 110 
4 92 93 112 111 
4 93 94 113 112 
4 94 95 114 113 
4 95 403 404 114 
4 23 96 115 24 
4 96 97 116 115 
4 97 98 117 116 
4 98 99 118 117 
4 99 100 119 118 
4 100 101 120 119 
4 101 102 121 120 
4 102 103 122 121 
4 103 104 123 122 
4 104 105 124 123 
4 105 106 125 124 
4 106 107 126 125 
4 107 108 127 126 
4 108 109 128 127 
4 109 110 129 128 
4 110 111 130 129 
4 111 112 131 130 
4 112 113 132 131 
4 113 114 133 132 
4 114 404 405 133 
4 24 115 134 25 
4 115 116 135 134 
4 116 117 136 135 
4 117 118 137 136 
4 118 119 138 137 
4 119 120 139 138 
4 120 121 140 139 
4 121 122 141 140 
4 122 123 142 141 
4 123 124 143 142 
4 124 125 144 143 
4 125 126 145 144 
4 126 127 146 145 
4 127 128 147 146 
4 128 129 148 147 
4 129 130 149 148 
4 130 131 150 149 
4 131 132 151 150 
4 132 133 152 151 
4 133 405 406 152 
4 25 134 153 26 
4 134 135 154 153 
4 135 136 155 154 
4 136 137 156 155 
4 137 138 157 156 
4 138 139 158 157 
4 139 140 159 158 
4 140 141 160 159 
4 141 142 161 160 
4 142 143 162 161 
4 143 144 163 162 
4 144 145 164 163 
4 145 146 165 164 
4 146 147 166 165 
4 147 148 167 166 
4 148 149 168 167 
4 149 150 169 168 
4 150 151 170 169 
4 151 152 171 170 
4 152 406 407 171 
4 26 153 172 27 
4 153 154 173 172 
4 154 155 174 173 
4 155 156 175 174 
4 156 157 176 175 
4 157 158 177 176 
4 158 159 178 177 
4 159 160 179 178 
4 160 161 180 179 
4 161 162 181 180 
4 162 163 182 181 
4 163 164 183 182 
4 164 165 184 183 
4 165 166 185 184 
4 166 167 186 185 
4 167 168 187 186 
4 168 169 188 187 
4 169 170 189 188 
4 170 171 190 189 
4 171 407 408 190 
4 27 172 191 28 
4 172 173 192 191 
4 173 174 193 192 
4 174 175 194 193 
4 175 176 195 194 
4 176 177 196 195 
4 177 178 197 196 
4 178 179 198 197 
4 179 180 199 198 
4 180 181 200 199 
4 181 182 201 200 
4 182 183 202 201 
4 183 184 203 202 
4 184 185 204 203 
4 185 186 205 204 
4 186 187 206 205 
4 187 188 207 206 
4 188 189 208 207 
4 189 190 209 208 
4 190 408 409 209 
4 28 191 210 29 
4 191 192 211 210 
4 192 193 212 211 
4 193 194 213 212 
4 194 195 214 213 
4 195 196 215 214 
4 196 197 216 215 
4 197 198 217 216 
4 198 199 218 217 
4 199 200 219 218 
4 200 201 220 219 
4 201 202 221 220 
4 202 203 222 221 
4 203 204 223 222 
4 204 205 224 223 
4 205 206 225 224 
4 206 207 226 225 
4 207 208 227 226 
4 208 209 228 227 
4 209 409 410 228 
4 29 210 229 30 
4 210 211 230 229 
4 211 212 231 230 
4 212 213 232 231 
4 213 214 233 232 
4 214 215 234 233 
4 215 216 235 234 
4 216 217 236 235 
4 217 218 237 236 
4 218 219 238 237 
4 219 220 239 238 
4 220 221 240 239 
4 221 222 241 240 
4 222 223 242 241 
4 223 224 243 242 
4 224 225 244 243 
4 225 226 245 244 
4 226 227 246 245 
4 227 228 247 246 
4 228 410 411 247 
4 30 229 248 31 
4 229 230 249 248 
4 230 231 250 249 
4 231 232 251 250 
4 232 233 252 251 
4 233 234 253 252 
4 234 235 254 253 
4 235 236 255 254 
4 236 237 256 255 
4 237 238 257 256 
4 238 239 258 257 
4 239 240 259 258 
4 240 241 260 259 
4 241 242 261 260 
4 242 243 262 261 
4 243 244 263 262 
4 244 245 264 263 
4 245 246 265 264 
4 246 247 266 265 
4 247 411 412 266 
4 31 248 267 32 
4 248 249 268 267 
4 249 250 269 268 
4 250 251 270 269 
4 251 252 271 270 
4 252 253 272 271 
4 253 254 273 272 
4 254 255 274 273 
4 255 256 275 274 
4 256 257 276 275 
4 257 258 277 276 
4 258 259 278 277 
4 259 260 279 278 
4 260 261 280 279 
4 261 262 281 280 
4 262 263 282 281 
4 263 264 283 282 
4 264 265 284 283 
4 265 266 285 284 
4 266 412 413 285 
4 32 267 286 33 
4 267 268 287 286 
4 268 269 288 287 
4 269 270 289 288 
4 270 271 290 289 
4 271 272 291 290 
4 272 273 292 291 
4 273 274 293 292 
4 274 275 294 293 
4 275 276 295 294 
4 276 277 296 295 
4 277 278 297 296 
4 278 279 298 297 
4 279 280 299 298 
4 280 281 300 299 
4 281 282 301 300 
4 282 283 302 301 
4 283 284 303 302 
4 284 285 304 303 
4 285 413 414 304 
4 33 286 305 34 
4 286 287 306 305 
4 287 288 307 306 
4 288 289 308 307 
4 289 290 309 308 
4 290 291 310 309 
4 291 292 311 310 
4 292 293 312 311 
4 293 294 313 312 
4 294 295 314 313 
4 295 296 315 314 
4 296 297 316 315 
4 297 298 317 316 
4 298 299 318 317 
4 299 300 319 318 
4 300 301 320 319 
4 301 302 321 320 
4 302 303 322 321 
4 303 304 323 322 
4 304 414 415 323 
4 34 305 324 35 
4 305 306 325 324 
4 306 307 326 325 
4 307 308 327 326 
4 308 309 328 327 
4 309 310 329 328 
4 310 311 330 329 
4 311 312 331 330 
4 312 313 332 331 
4 313 314 333 332 
4 314 315 334 333 
4 315 316 335 334 
4 316 317 336 335 
4 317 318 337 336 
4 318 319 338 337 
4 319 320 339 338 
4 320 321 340 339 
4 321 322 341 340 
4 322 323 342 341 
4 323 415 416 342 
4 35 324 343 36 
4 324 325 344 343 
4 325 326 345 344 
4 326 327 346 345 
4 327 328 347 346 
4 328 329 348 347 
4 329 330 349 348 
4 330 331 350 349 
4 331 332 351 350 
4 332 333 352 351 
4 333 334 353 352 
4 334 335 354 353 
4 335 336 355 354 
4 336 337 356 355 
4 337 338 357 356 
4 338 339 358 357 
4 339 340 359 358 
4 340 341 360 359 
4 341 342 361 360 
4 342 416 417 361 
4 36 343 362 37 
4 343 344 363 362 
4 344 345 364 363 
4 345 346 365 364 
4 346 347 366 365 
4 347 348 367 366 
4 348 349 368 367 
4 349 350 369 368 
4 350 351 370 369 
4 351 352 371 370 
4 352 353 372 371 
4 353 354 373 372 
4 354 355 374 373 
4 355 356 375 374 
4 356 357 376 375 
4 357 358 377 376 
4 358 359 378 377 
4 359 360 379 378 
4 360 361 380 379 
4 361 417 418 380 
4 37 362 381 38 
4 362 363 382 381 
4 363 364 383 382 
4 364 365 384 383 
4 365 366 385 384 
4 366 367 386 385 
4 367 368 387 386 
4 368 369 388 387 
4 369 370 389 388 
4 370 371 390 389 
4 371 372 391 390 
4 372 373 392 391 
4 373 374 393 392 
4 374 375 394 393 
4 375 376 395 394 
4 376 377 396 395 
4 377 378 397 396 
4 378 379 398 397 
4 379 380 399 398 
4 380 418 419 399 
4 38 381 420 421 
4 381 382 422 420 
4 382 383 423 422 
4 383 384 424 423 
4 384 385 425 424 
4 385 386 426 425 
4 386 387 427 426 
4 387 388 428 427 
4 388 389 429 428 
4 389 390 430 429 
4 390 391 431 430 
4 391 392 432 431 
4 392 393 433 432 
4 393 394 434 433 
4 394 395 435 434 
4 395 396 436 435 
4 396 397 437 436 
4 397 398 438 437 
4 398 399 439 438 
4 399 419 439 439 
4 38 421 421 440 
CELL_TYPES 401
9
9
9
9
9
9
9
9
9
9
9
9
9
9
9
9
9
9
9
9
9
9
9
9
9
9
9
9
9
9
9
9
9
9
9
9
9
9
9
9
9
9
9
9
9
9
9
9
9
9
9
9
9
9
9
9
9
9
9
9
9
9
9
9
9
9
9
9
9
9
9
9
9
9
9
9
9
9
9
9
9
9
9
9
9
9
9
9
9
9
9
9
9
9
9
9
9
9
9
9
9
9
9
9
9
9
9
9
9
9
9
9
9
9
9
9
9
9
9
9
9
9
9
9
9
9
9
9
9
9
9
9
9
9
9
9
9
9
9
9
9
9
9
9
9
9
9
9
9
9
9
9
9
9
9
9
9
9
9
9
9
9
9
9
9
9
9
9
9
9
9
9
9
9
9
9
9
9
9
9
9
9
9
9
9
9
9
9
9
9
9
9
9
9
9
9
9
9
9
9
9
9
9
9
9
9
9
9
9
9
9
9
9
9
9
9
9
9
9
9
9
9
9
9
9
9
9
9
9
9
9
9
9
9
9
9
9
9
9
9
9
9
9
9
9
9
9
9
9
9
9
9
9
9
9
9
9
9
9
9
9
9
9
9
9
9
9
9
9
9
9
9
9
9
9
9
9
9
9
9
9
9
9
9
9
9
9
9
9
9
9
9
9
9
9
9
9
9
9
9
9
9
9
9
9
9
9
9
9
9
9
9
9
9
9
9
9
9
9
9
9
9
9
9
9
9
9
9
9
9
9
9
9
9
9
9
9
9
9
9
9
9
9
9
9
9
9
9
9
9
9
9
9
9
9
9
9
9
9
9
9
9
9
9
9
9
9
9
9
9
9
9
9
9
9
9
9
9
9
9
9
9
9
9
9
9
9
9
9
9
9
9
9
9
9
9
9
9
9
9
9
CELL_DATA 401
SCALARS _ELEM_NUM double 1
LOOKUP_TABLE default
1601 1602 1603 1604 1605 1606 1607 1608 1609 1610 1611 1612 1613 1614 1615 1616 1617 1618 1619 1620 1621 1622 1623 1624 1625 1626 1627 1628 1629 1630 1631 1632 1633 1634 1635 1636 1637 1638 1639 1640 1641 1642 1643 1644 1645 1646 1647 1648 1649 1650 1651 1652 1653 1654 1655 1656 1657 1658 1659 1660 1661 1662 1663 1664 1665 1666 1667 1668 1669 1670 1671 1672 1673 1674 1675 1676 1677 1678 1679 1680 1681 1682 1683 1684 1685 1686 1687 1688 1689 1690 1691 1692 1693 1694 1695 1696 1697 1698 1699 1700 1701 1702 1703 1704 1705 1706 1707 1708 1709 1710 1711 1712 1713 1714 1715 1716 1717 1718 1719 1720 1721 1722 1723 1724 1725 1726 1727 1728 1729 1730 1731 1732 1733 1734 1735 1736 1737 1738 1739 1740 1741 1742 1743 1744 1745 1746 1747 1748 1749 1750 1751 1752 1753 1754 1755 1756 1757 1758 1759 1760 1761 1762 1763 1764 1765 1766 1767 1768 1769 1770 1771 1772 1773 1774 1775 1776 1777 1778 1779 1780 1781 1782 1783 1784 1785 1786 1787 1788 1789 1790 1791 1792 1793 1794 1795 1796 1797 1798 1799 1800 1801 1802 1803 1804 1805 1806 1807 1808 1809 1810 1811 1812 1813 1814 1815 1816 1817 1818 1819 1820 1821 1822 1823 1824 1825 1826 1827 1828 1829 1830 1831 1832 1833 1834 1835 1836 1837 1838 1839 1840 1841 1842 1843 1844 1845 1846 1847 1848 1849 1850 1851 1852 1853 1854 1855 1856 1857 1858 1859 1860 1861 1862 1863 1864 1865 1866 1867 1868 1869 1870 1871 1872 1873 1874 1875 1876 1877 1878 1879 1880 1881 1882 1883 1884 1885 1886 1887 1888 1889 1890 1891 1892 1893 1894 1895 1896 1897 1898 1899 1900 1901 1902 1903 1904 1905 1906 1907 1908 1909 1910 1911 1912 1913 1914 1915 1916 1917 1918 1919 1920 1921 1922 1923 1924 1925 1926 1927 1928 1929 1930 1931 1932 1933 1934 1935 1936 1937 1938 1939 1940 1941 1942 1943 1944 1945 1946 1947 1948 1949 1950 1951 1952 1953 1954 1955 1956 1957 1958 1959 1960 1961 1962 1963 1964 1965 1966 1967 1968 1969 1970 1971 1972 1973 1974 1975 1976 1977 1978 1979 1980 1981 1982 1983 1984 1985 1986 1987 1988 1989 1990 1991 1992 1993 1994 1995 1996 1997 1998 1999 2000 2401 
POINT_DATA 441
SCALARS _NODE_NUM double 1
LOOKUP_TABLE default
1601 1602 1621 1603 1604 1605 1606 1607 1608 1609 1610 1611 1612 1613 1614 1615 1616 1617 1618 1619 1620 1641 1661 1681 1701 1721 1741 1761 1781 1801 1821 1841 1861 1881 1901 1921 1941 1961 1981 1622 1623 1624 1625 1626 1627 1628 1629 1630 1631 1632 1633 1634 1635 1636 1637 1638 1639 1640 1642 1643 1644 1645 1646 1647 1648 1649 1650 1651 1652 1653 1654 1655 1656 1657 1658 1659 1660 1662 1663 1664 1665 1666 1667 1668 1669 1670 1671 1672 1673 1674 1675 1676 1677 1678 1679 1680 1682 1683 1684 1685 1686 1687 1688 1689 1690 1691 1692 1693 1694 1695 1696 1697 1698 1699 1700 1702 1703 1704 1705 1706 1707 1708 1709 1710 1711 1712 1713 1714 1715 1716 1717 1718 1719 1720 1722 1723 1724 1725 1726 1727 1728 1729 1730 1731 1732 1733 1734 1735 1736 1737 1738 1739 1740 1742 1743 1744 1745 1746 1747 1748 1749 1750 1751 1752 1753 1754 1755 1756 1757 1758 1759 1760 1762 1763 1764 1765 1766 1767 1768 1769 1770 1771 1772 1773 1774 1775 1776 1777 1778 1779 1780 1782 1783 1784 1785 1786 1787 1788 1789 1790 1791 1792 1793 1794 1795 1796 1797 1798 1799 1800 1802 1803 1804 1805 1806 1807 1808 1809 1810 1811 1812 1813 1814 1815 1816 1817 1818 1819 1820 1822 1823 1824 1825 1826 1827 1828 1829 1830 1831 1832 1833 1834 1835 1836 1837 1838 1839 1840 1842 1843 1844 1845 1846 1847 1848 1849 1850 1851 1852 1853 1854 1855 1856 1857 1858 1859 1860 1862 1863 1864 1865 1866 1867 1868 1869 1870 1871 1872 1873 1874 1875 1876 1877 1878 1879 1880 1882 1883 1884 1885 1886 1887 1888 1889 1890 1891 1892 1893 1894 1895 1896 1897 1898 1899 1900 1902 1903 1904 1905 1906 1907 1908 1909 1910 1911 1912 1913 1914 1915 1916 1917 1918 1919 1920 1922 1923 1924 1925 1926 1927 1928 1929 1930 1931 1932 1933 1934 1935 1936 1937 1938 1939 1940 1942 1943 1944 1945 1946 1947 1948 1949 1950 1951 1952 1953 1954 1955 1956 1957 1958 1959 1960 1962 1963 1964 1965 1966 1967 1968 1969 1970 1971 1972 1973 1974 1975 1976 1977 1978 1979 1980 1982 1983 1984 1985 1986 1987 1988 1989 1990 1991 1992 1993 1994 1995 1996 1997 1998 1999 2000 2001 2021 2041 2061 2081 2101 2121 2141 2161 2181 2201 2221 2241 2261 2281 2301 2321 2341 2361 2381 361 381 341 321 301 281 261 241 221 201 181 161 141 121 101 81 61 41 21 1 1181 
SCALARS array_000 double 1
LOOKUP_TABLE default
14.4083 14.3087 14.4454 14.2115 14.117 14.0258 13.9382 13.8547 13.7756 13.7014 13.6323 13.5688 13.511 13.4593 13.4139 13.3749 13.3425 13.3167 13.2977 13.2854 13.2798 14.4848 14.5264 14.5699 14.6153 14.6624 14.7109 14.7607 14.8114 14.863 14.9151 14.9675 15.02 15.0723 15.1242 15.1755 15.226 15.2754 15.3236 14.342 14.2402 14.1407 14.0441 13.9508 13.8616 13.7771 13.6977 13.6241 13.5566 13.4958 13.4419 13.3952 13.356 13.3241 13.2998 13.283 13.2735 13.2712 14.3783 14.2728 14.1689 14.0673 13.9689 13.8743 13.7846 13.7003 13.6223 13.5511 13.4874 13.4314 13.3837 13.3442 13.3131 13.2903 13.2755 13.2686 13.2692 14.4177 14.3091 14.2015 14.0957 13.9926 13.8933 13.7988 13.7099 13.6278 13.5531 13.4866 13.4289 13.3801 13.3405 13.31 13.2885 13.2756 13.271 13.274 14.4598 14.3492 14.2387 14.1295 14.0225 13.9191 13.8203 13.7274 13.6415 13.5636 13.4946 13.4351 13.3854 13.3456 13.3156 13.2951 13.2837 13.2808 13.2857 14.5047 14.3928 14.2804 14.1687 14.0587 13.9519 13.8496 13.7533 13.6641 13.5835 13.5122 13.451 13.4003 13.3601 13.3303 13.3105 13.3 13.2982 13.3043 14.5521 14.4398 14.3265 14.2133 14.1013 13.9921 13.8872 13.7881 13.6963 13.6133 13.54 13.4773 13.4255 13.3847 13.3547 13.3349 13.3247 13.3233 13.3297 14.6017 14.49 14.3768 14.2631 14.1502 14.0396 13.933 13.832 13.7384 13.6535 13.5785 13.5143 13.4614 13.4197 13.3889 13.3686 13.3579 13.3559 13.3618 14.6533 14.5431 14.431 14.3178 14.2051 14.0943 13.987 13.8852 13.7904 13.7042 13.6279 13.5624 13.5081 13.4651 13.4331 13.4115 13.3995 13.3962 13.4006 14.7066 14.5987 14.4885 14.3771 14.2656 14.1556 14.0488 13.947 13.8519 13.7651 13.6879 13.6211 13.5654 13.5208 13.4869 13.4634 13.4493 13.4438 13.4459 14.7613 14.6565 14.5491 14.4402 14.331 14.223 14.1177 14.0169 13.9224 13.8355 13.7578 13.69 13.6327 13.5862 13.5501 13.5239 13.507 13.4985 13.4974 14.8171 14.7159 14.6121 14.5066 14.4006 14.2955 14.1927 14.0939 14.0006 13.9144 13.8366 13.768 13.7093 13.6606 13.6219 13.5926 13.5722 13.56 13.555 14.8735 14.7765 14.6769 14.5755 14.4735 14.3721 14.2726 14.1765 14.0853 14.0004 13.923 13.8539 13.7939 13.743 13.7014 13.6686 13.6443 13.6278 13.6184 14.9304 14.8378 14.7429 14.6462 14.5488 14.4517 14.3562 14.2636 14.1751 14.0921 14.0155 13.9463 13.8851 13.8322 13.7876 13.7512 13.7227 13.7016 13.6872 14.9873 14.8995 14.8094 14.7178 14.6254 14.5332 14.4422 14.3535 14.2683 14.1877 14.1125 14.0436 13.9816 13.9268 13.8795 13.8395 13.8067 13.7808 13.7612 15.0438 14.9609 14.876 14.7897 14.7026 14.6155 14.5294 14.4451 14.3635 14.2857 14.2123 14.1442 14.0818 14.0256 13.9758 13.9324 13.8955 13.8648 13.84 15.0998 15.0218 14.9421 14.8611 14.7794 14.6977 14.6166 14.5369 14.4594 14.3847 14.3136 14.2467 14.1844 14.1273 14.0754 14.0291 13.9883 13.9531 13.9232 15.1548 15.0818 15.0072 14.9316 14.8553 14.7789 14.7029 14.628 14.5546 14.4835 14.415 14.3498 14.2882 14.2306 14.1773 14.1286 14.0845 14.0451 14.0104 15.2087 15.1404 15.0709 15.0005 14.9295 14.8584 14.7876 14.7174 14.6484 14.581 14.5155 14.4524 14.392 14.3346 14.2805 14.23 14.1832 14.1402 14.1012 15.2612 15.1975 15.1329 15.0675 15.0017 14.9358 14.87 14.8046 14.74 14.6765 14.6143 14.5537 14.4949 14.4384 14.3842 14.3326 14.2837 14.2379 14.1952 13.286 13.2775 13.2758 13.2809 13.2927 13.3114 13.337 13.3692 13.408 13.4533 13.5049 13.5624 13.6258 13.6945 13.7684 13.847 13.93 14.017 14.1076 14.2013 15.3403 15.3995 15.2796 15.2176 15.1545 15.0906 15.0262 14.9616 14.8971 14.8329 14.7693 14.7067 14.6453 14.5854 14.5273 14.4712 14.4173 14.3658 14.3171 14.2711 15.4068 
