# vtk DataFile Version 3.0
This file was generated by ESMC 
ASCII
DATASET UNSTRUCTURED_GRID
POINTS 440 double
0.495638 -0.660309 -0.564211
0.528935 -0.612802 -0.587113
0.515829 -0.687125 -0.511644
0.56028 -0.56273 -0.6078
0.589522 -0.510278 -0.626163
0.616514 -0.455648 -0.642102
0.641119 -0.39906 -0.655528
0.66321 -0.340749 -0.666366
0.682671 -0.280966 -0.674551
0.699403 -0.219972 -0.680035
0.713321 -0.158043 -0.682785
0.724357 -0.0954582 -0.682785
0.732459 -0.0325038 -0.680035
0.737597 0.0305337 -0.674551
0.739756 0.0933683 -0.666366
0.738942 0.155718 -0.655528
0.735175 0.217309 -0.642102
0.728495 0.277876 -0.626163
0.718956 0.337166 -0.6078
0.706626 0.394939 -0.587113
0.691587 0.45097 -0.564211
0.534075 -0.711348 -0.45689
0.550277 -0.732851 -0.400157
0.564345 -0.751516 -0.34167
0.576199 -0.76724 -0.281669
0.58577 -0.779932 -0.220407
0.593 -0.789518 -0.158153
0.597844 -0.795941 -0.0951805
0.600275 -0.799163 -0.0317752
0.600275 -0.799163 0.0317752
0.597844 -0.795941 0.0951805
0.593 -0.789518 0.158153
0.58577 -0.779932 0.220407
0.576199 -0.76724 0.281669
0.564345 -0.751516 0.34167
0.550277 -0.732851 0.400157
0.534075 -0.711348 0.45689
0.515829 -0.687125 0.511644
0.495638 -0.660309 0.564211
0.552379 -0.639888 -0.534248
0.587017 -0.589517 -0.55487
0.619507 -0.536174 -0.573348
0.649616 -0.480064 -0.589523
0.677117 -0.421426 -0.603252
0.701796 -0.360543 -0.614404
0.723458 -0.29773 -0.622869
0.741933 -0.233335 -0.628562
0.757079 -0.167734 -0.631424
0.76879 -0.101318 -0.631424
0.776994 -0.0344927 -0.628562
0.781657 0.0323369 -0.622869
0.782785 0.0987709 -0.614404
0.780418 0.164423 -0.603252
0.774631 0.22893 -0.589523
0.765529 0.291955 -0.573348
0.753242 0.353193 -0.55487
0.737921 0.412373 -0.534248
0.719732 0.469262 -0.511644
0.573778 -0.664602 -0.478627
0.611654 -0.614191 -0.498648
0.647381 -0.56024 -0.516748
0.680633 -0.502934 -0.532725
0.711081 -0.442522 -0.546386
0.738412 -0.379321 -0.557552
0.762333 -0.313704 -0.566072
0.782592 -0.246108 -0.571823
0.798977 -0.177011 -0.57472
0.811334 -0.10693 -0.57472
0.819569 -0.0363964 -0.571823
0.823652 0.0340523 -0.566072
0.823615 0.103893 -0.557552
0.81955 0.172631 -0.546386
0.811599 0.239813 -0.532725
0.799953 0.305035 -0.516748
0.784832 0.367953 -0.498648
0.766482 0.428278 -0.478627
0.745162 0.485784 -0.45689
0.592958 -0.686746 -0.420453
0.633935 -0.636499 -0.439312
0.672805 -0.582182 -0.456506
0.709141 -0.523948 -0.471803
0.742509 -0.462038 -0.484974
0.772485 -0.39679 -0.495807
0.798668 -0.328632 -0.504113
0.820707 -0.25808 -0.50974
0.838312 -0.185722 -0.512581
0.851277 -0.112199 -0.512581
0.859481 -0.0381828 -0.50974
0.862902 0.0356524 -0.504113
0.861609 0.108655 -0.495807
0.855757 0.180221 -0.484974
0.845575 0.249809 -0.471803
0.831348 0.316959 -0.456506
0.8134 0.381295 -0.439312
0.792079 0.442527 -0.420453
0.767741 0.500449 -0.400157
0.609754 -0.706133 -0.359966
0.65361 -0.656192 -0.377103
0.69543 -0.601705 -0.392847
0.734696 -0.54278 -0.406955
0.770863 -0.47964 -0.419183
0.803392 -0.412632 -0.429298
0.831765 -0.342227 -0.437089
0.855527 -0.269015 -0.442386
0.8743 -0.193689 -0.445066
0.887819 -0.11702 -0.445066
0.89594 -0.0398166 -0.442386
0.898652 0.0371071 -0.437089
0.89607 0.112971 -0.429298
0.888421 0.187064 -0.419183
0.87603 0.258765 -0.406955
0.859286 0.327566 -0.392847
0.838623 0.393071 -0.377103
0.814493 0.455 -0.359966
0.787344 0.513177 -0.34167
0.624014 -0.722588 -0.297444
0.670437 -0.67303 -0.312322
0.714918 -0.618515 -0.326084
0.756852 -0.559103 -0.338495
0.795592 -0.494988 -0.349315
0.830481 -0.426515 -0.358311
0.860889 -0.354187 -0.365271
0.886248 -0.278661 -0.370017
0.906095 -0.200729 -0.372423
0.920104 -0.12128 -0.372423
0.928108 -0.0412591 -0.370017
0.93011 0.0383849 -0.365271
0.926273 0.116751 -0.358311
0.916907 0.193028 -0.349315
0.902433 0.266526 -0.338495
0.883348 0.336697 -0.326084
0.860194 0.403138 -0.312322
0.833521 0.465585 -0.297444
0.803862 0.523898 -0.281669
0.6356 -0.735955 -0.2332
0.684196 -0.686795 -0.245334
0.730951 -0.632342 -0.256622
0.775184 -0.572606 -0.266856
0.816157 -0.507749 -0.275823
0.853109 -0.438108 -0.283312
0.885301 -0.36421 -0.289126
0.912062 -0.286765 -0.293102
0.932845 -0.20665 -0.295121
0.947266 -0.124864 -0.295121
0.955137 -0.0424725 -0.293102
0.956478 0.0394544 -0.289126
0.951502 0.119907 -0.283312
0.940597 0.197986 -0.275823
0.924278 0.272945 -0.266856
0.903143 0.344207 -0.256622
0.877831 0.411367 -0.245334
0.848981 0.474183 -0.2332
0.817196 0.532551 -0.220407
0.644398 -0.746102 -0.167579
0.694696 -0.697297 -0.176561
0.743247 -0.642944 -0.184952
0.789309 -0.583008 -0.192593
0.832071 -0.517621 -0.199314
0.870683 -0.447111 -0.204946
0.904315 -0.372016 -0.209331
0.932208 -0.293089 -0.212337
0.953742 -0.211276 -0.213865
0.968485 -0.127665 -0.213865
0.976231 -0.0434203 -0.212337
0.977015 0.0402862 -0.209331
0.971095 0.122356 -0.204946
0.958928 0.20182 -0.199314
0.941109 0.277889 -0.192593
0.918323 0.349964 -0.184952
0.89129 0.417645 -0.176561
0.860718 0.48071 -0.167579
0.827269 0.539087 -0.158153
0.650315 -0.752926 -0.100955
0.701785 -0.704387 -0.106474
0.751578 -0.650127 -0.111645
0.798914 -0.590081 -0.116367
0.842926 -0.524355 -0.120532
0.882703 -0.453268 -0.124031
0.917348 -0.377365 -0.126761
0.946038 -0.29743 -0.128634
0.968099 -0.214454 -0.129588
0.983064 -0.129588 -0.129588
0.990712 -0.044071 -0.128634
0.991092 0.0408558 -0.126761
0.984496 0.12403 -0.124031
0.971431 0.204435 -0.120532
0.952553 0.281249 -0.116367
0.928609 0.353865 -0.111645
0.900377 0.421883 -0.106474
0.868612 0.485099 -0.100955
0.834018 0.543465 -0.0951805
0.65329 -0.756357 -0.0337201
0.705356 -0.707959 -0.0355815
0.755786 -0.653754 -0.0373285
0.803774 -0.593659 -0.0389262
0.84843 -0.527769 -0.0403373
0.888808 -0.456394 -0.0415241
0.923976 -0.380086 -0.0424509
0.953079 -0.29964 -0.0430876
0.975412 -0.216073 -0.0434119
0.990488 -0.130568 -0.0434119
0.998084 -0.0444028 -0.0430876
0.998251 0.0411454 -0.042451
0.991303 0.12488 -0.0415241
0.977771 0.205761 -0.0403373
0.958344 0.28295 -0.0389262
0.933803 0.355834 -0.0373285
0.904955 0.424018 -0.0355815
0.872581 0.487305 -0.0337201
0.837403 0.545661 -0.0317752
0.65329 -0.756357 0.0337201
0.705356 -0.707959 0.0355815
0.755786 -0.653754 0.0373285
0.803774 -0.593659 0.0389262
0.84843 -0.527769 0.0403373
0.888808 -0.456394 0.0415241
0.923976 -0.380086 0.0424509
0.953079 -0.29964 0.0430876
0.975412 -0.216073 0.0434119
0.990488 -0.130568 0.0434119
0.998084 -0.0444028 0.0430876
0.998251 0.0411454 0.0424509
0.991303 0.12488 0.0415241
0.977771 0.205761 0.0403373
0.958344 0.28295 0.0389262
0.933803 0.355834 0.0373285
0.904955 0.424018 0.0355815
0.872581 0.487305 0.0337201
0.837403 0.545661 0.0317752
0.650315 -0.752926 0.100955
0.701785 -0.704387 0.106474
0.751578 -0.650127 0.111645
0.798914 -0.590081 0.116367
0.842926 -0.524355 0.120532
0.882703 -0.453268 0.124031
0.917348 -0.377365 0.126761
0.946038 -0.29743 0.128634
0.968099 -0.214454 0.129588
0.983064 -0.129588 0.129588
0.990712 -0.044071 0.128634
0.991092 0.0408558 0.126761
0.984496 0.12403 0.124031
0.971431 0.204435 0.120532
0.952553 0.281249 0.116367
0.928609 0.353865 0.111645
0.900377 0.421883 0.106474
0.868612 0.485099 0.100955
0.834018 0.543465 0.0951805
0.644398 -0.746102 0.167579
0.694696 -0.697297 0.176561
0.743247 -0.642944 0.184952
0.789309 -0.583008 0.192593
0.832071 -0.517621 0.199314
0.870683 -0.447111 0.204946
0.904315 -0.372016 0.209331
0.932208 -0.293089 0.212337
0.953742 -0.211276 0.213865
0.968485 -0.127665 0.213865
0.976231 -0.0434203 0.212337
0.977015 0.0402862 0.209331
0.971095 0.122356 0.204946
0.958928 0.20182 0.199314
0.941109 0.277889 0.192593
0.918323 0.349964 0.184952
0.89129 0.417645 0.176561
0.860718 0.48071 0.167579
0.827269 0.539087 0.158153
0.6356 -0.735955 0.2332
0.684196 -0.686795 0.245334
0.730951 -0.632342 0.256622
0.775184 -0.572606 0.266856
0.816157 -0.507749 0.275823
0.853109 -0.438108 0.283312
0.885301 -0.36421 0.289126
0.912062 -0.286765 0.293102
0.932845 -0.20665 0.295121
0.947266 -0.124864 0.295121
0.955137 -0.0424725 0.293102
0.956478 0.0394544 0.289126
0.951502 0.119906 0.283312
0.940597 0.197986 0.275823
0.924278 0.272945 0.266856
0.903143 0.344207 0.256622
0.877831 0.411367 0.245334
0.848981 0.474183 0.2332
0.817196 0.532551 0.220407
0.624014 -0.722588 0.297444
0.670437 -0.67303 0.312322
0.714918 -0.618515 0.326084
0.756852 -0.559103 0.338495
0.795592 -0.494988 0.349315
0.830481 -0.426515 0.358311
0.860889 -0.354187 0.365271
0.886248 -0.278661 0.370017
0.906095 -0.200729 0.372423
0.920104 -0.12128 0.372423
0.928108 -0.0412591 0.370017
0.93011 0.0383849 0.365271
0.926273 0.116751 0.358311
0.916907 0.193028 0.349315
0.902433 0.266526 0.338495
0.883348 0.336697 0.326084
0.860194 0.403139 0.312322
0.833521 0.465585 0.297444
0.803862 0.523898 0.281669
0.609754 -0.706133 0.359966
0.65361 -0.656192 0.377103
0.69543 -0.601704 0.392847
0.734696 -0.54278 0.406955
0.770863 -0.47964 0.419183
0.803392 -0.412632 0.429298
0.831765 -0.342227 0.437089
0.855527 -0.269015 0.442386
0.8743 -0.193689 0.445066
0.887819 -0.11702 0.445066
0.89594 -0.0398166 0.442386
0.898652 0.0371071 0.437089
0.89607 0.112971 0.429298
0.888421 0.187064 0.419183
0.87603 0.258765 0.406955
0.859286 0.327566 0.392847
0.838623 0.393071 0.377103
0.814493 0.455 0.359966
0.787344 0.513177 0.34167
0.592958 -0.686746 0.420453
0.633935 -0.636499 0.439312
0.672805 -0.582182 0.456506
0.709141 -0.523948 0.471803
0.74251 -0.462038 0.484974
0.772485 -0.39679 0.495807
0.798668 -0.328632 0.504113
0.820707 -0.25808 0.50974
0.838312 -0.185722 0.512582
0.851276 -0.112199 0.512582
0.859481 -0.0381828 0.50974
0.862902 0.0356524 0.504113
0.861609 0.108655 0.495807
0.855757 0.180221 0.484974
0.845575 0.249809 0.471803
0.831348 0.316959 0.456506
0.8134 0.381295 0.439312
0.792079 0.442527 0.420453
0.767741 0.500449 0.400157
0.573778 -0.664602 0.478627
0.611654 -0.614191 0.498648
0.647382 -0.56024 0.516748
0.680633 -0.502934 0.532725
0.711081 -0.442522 0.546386
0.738412 -0.379321 0.557552
0.762333 -0.313704 0.566072
0.782592 -0.246108 0.571823
0.798977 -0.177011 0.57472
0.811334 -0.10693 0.57472
0.819569 -0.0363964 0.571823
0.823652 0.0340523 0.566072
0.823615 0.103893 0.557552
0.81955 0.172631 0.546386
0.811599 0.239813 0.532725
0.799953 0.305036 0.516748
0.784832 0.367953 0.498648
0.766482 0.428278 0.478627
0.745162 0.485784 0.45689
0.552379 -0.639888 0.534247
0.587017 -0.589517 0.55487
0.619507 -0.536175 0.573348
0.649616 -0.480064 0.589523
0.677117 -0.421426 0.603252
0.701796 -0.360543 0.614404
0.723458 -0.29773 0.622869
0.741933 -0.233335 0.628562
0.757079 -0.167734 0.631424
0.76879 -0.101318 0.631424
0.776994 -0.0344927 0.628562
0.781657 0.0323369 0.622869
0.782785 0.0987709 0.614404
0.780418 0.164423 0.603252
0.774631 0.22893 0.589523
0.765529 0.291955 0.573348
0.753242 0.353193 0.55487
0.737921 0.412373 0.534248
0.719732 0.469262 0.511644
0.528935 -0.612802 0.587113
0.56028 -0.56273 0.6078
0.589522 -0.510278 0.626163
0.616514 -0.455648 0.642102
0.641119 -0.39906 0.655528
0.66321 -0.340749 0.666366
0.682671 -0.280966 0.674551
0.699403 -0.219972 0.680035
0.713321 -0.158043 0.682785
0.724357 -0.0954582 0.682785
0.732459 -0.0325037 0.680035
0.737597 0.0305337 0.674551
0.739756 0.0933683 0.666366
0.738942 0.155718 0.655528
0.735175 0.217309 0.642102
0.728495 0.277876 0.626163
0.718956 0.337166 0.6078
0.706626 0.394939 0.587113
0.691587 0.45097 0.564211
0.660309 0.495638 -0.564211
0.687125 0.51583 -0.511644
0.711348 0.534075 -0.456889
0.732851 0.550277 -0.400157
0.751516 0.564345 -0.34167
0.76724 0.576199 -0.281668
0.779932 0.58577 -0.220407
0.789518 0.593 -0.158152
0.795941 0.597845 -0.0951805
0.799162 0.600275 -0.0317751
0.799162 0.600275 0.0317753
0.795941 0.597845 0.0951806
0.789518 0.593 0.158153
0.779932 0.58577 0.220407
0.76724 0.576199 0.281669
0.751516 0.564345 0.34167
0.732851 0.550277 0.400157
0.711348 0.534075 0.45689
0.687125 0.515829 0.511644
0.660309 0.495638 0.564211
0.489347 -0.605822 0.627311
0.457665 -0.653614 0.60277
0.519228 -0.555492 0.649486
0.547163 -0.50281 0.669175
0.573016 -0.447979 0.686271
0.596657 -0.391221 0.700676
0.617968 -0.332772 0.712305
0.636839 -0.272884 0.721089
0.653175 -0.211821 0.726976
0.666894 -0.149857 0.729928
0.677929 -0.0872721 0.729928
0.686231 -0.0243523 0.726976
0.691765 0.0386152 0.721089
0.694515 0.101346 0.712305
0.69448 0.163558 0.700676
0.691677 0.224979 0.686271
0.686136 0.285345 0.669175
0.677904 0.344405 0.649486
0.667039 0.401919 0.627311
0.653614 0.457665 0.60277
CELLS 400 2000
4 0 1 39 2 
4 1 3 40 39 
4 3 4 41 40 
4 4 5 42 41 
4 5 6 43 42 
4 6 7 44 43 
4 7 8 45 44 
4 8 9 46 45 
4 9 10 47 46 
4 10 11 48 47 
4 11 12 49 48 
4 12 13 50 49 
4 13 14 51 50 
4 14 15 52 51 
4 15 16 53 52 
4 16 17 54 53 
4 17 18 55 54 
4 18 19 56 55 
4 19 20 57 56 
4 20 400 401 57 
4 2 39 58 21 
4 39 40 59 58 
4 40 41 60 59 
4 41 42 61 60 
4 42 43 62 61 
4 43 44 63 62 
4 44 45 64 63 
4 45 46 65 64 
4 46 47 66 65 
4 47 48 67 66 
4 48 49 68 67 
4 49 50 69 68 
4 50 51 70 69 
4 51 52 71 70 
4 52 53 72 71 
4 53 54 73 72 
4 54 55 74 73 
4 55 56 75 74 
4 56 57 76 75 
4 57 401 402 76 
4 21 58 77 22 
4 58 59 78 77 
4 59 60 79 78 
4 60 61 80 79 
4 61 62 81 80 
4 62 63 82 81 
4 63 64 83 82 
4 64 65 84 83 
4 65 66 85 84 
4 66 67 86 85 
4 67 68 87 86 
4 68 69 88 87 
4 69 70 89 88 
4 70 71 90 89 
4 71 72 91 90 
4 72 73 92 91 
4 73 74 93 92 
4 74 75 94 93 
4 75 76 95 94 
4 76 402 403 95 
4 22 77 96 23 
4 77 78 97 96 
4 78 79 98 97 
4 79 80 99 98 
4 80 81 100 99 
4 81 82 101 100 
4 82 83 102 101 
4 83 84 103 102 
4 84 85 104 103 
4 85 86 105 104 
4 86 87 106 105 
4 87 88 107 106 
4 88 89 108 107 
4 89 90 109 108 
4 90 91 110 109 
4 91 92 111 110 
4 92 93 112 111 
4 93 94 113 112 
4 94 95 114 113 
4 95 403 404 114 
4 23 96 115 24 
4 96 97 116 115 
4 97 98 117 116 
4 98 99 118 117 
4 99 100 119 118 
4 100 101 120 119 
4 101 102 121 120 
4 102 103 122 121 
4 103 104 123 122 
4 104 105 124 123 
4 105 106 125 124 
4 106 107 126 125 
4 107 108 127 126 
4 108 109 128 127 
4 109 110 129 128 
4 110 111 130 129 
4 111 112 131 130 
4 112 113 132 131 
4 113 114 133 132 
4 114 404 405 133 
4 24 115 134 25 
4 115 116 135 134 
4 116 117 136 135 
4 117 118 137 136 
4 118 119 138 137 
4 119 120 139 138 
4 120 121 140 139 
4 121 122 141 140 
4 122 123 142 141 
4 123 124 143 142 
4 124 125 144 143 
4 125 126 145 144 
4 126 127 146 145 
4 127 128 147 146 
4 128 129 148 147 
4 129 130 149 148 
4 130 131 150 149 
4 131 132 151 150 
4 132 133 152 151 
4 133 405 406 152 
4 25 134 153 26 
4 134 135 154 153 
4 135 136 155 154 
4 136 137 156 155 
4 137 138 157 156 
4 138 139 158 157 
4 139 140 159 158 
4 140 141 160 159 
4 141 142 161 160 
4 142 143 162 161 
4 143 144 163 162 
4 144 145 164 163 
4 145 146 165 164 
4 146 147 166 165 
4 147 148 167 166 
4 148 149 168 167 
4 149 150 169 168 
4 150 151 170 169 
4 151 152 171 170 
4 152 406 407 171 
4 26 153 172 27 
4 153 154 173 172 
4 154 155 174 173 
4 155 156 175 174 
4 156 157 176 175 
4 157 158 177 176 
4 158 159 178 177 
4 159 160 179 178 
4 160 161 180 179 
4 161 162 181 180 
4 162 163 182 181 
4 163 164 183 182 
4 164 165 184 183 
4 165 166 185 184 
4 166 167 186 185 
4 167 168 187 186 
4 168 169 188 187 
4 169 170 189 188 
4 170 171 190 189 
4 171 407 408 190 
4 27 172 191 28 
4 172 173 192 191 
4 173 174 193 192 
4 174 175 194 193 
4 175 176 195 194 
4 176 177 196 195 
4 177 178 197 196 
4 178 179 198 197 
4 179 180 199 198 
4 180 181 200 199 
4 181 182 201 200 
4 182 183 202 201 
4 183 184 203 202 
4 184 185 204 203 
4 185 186 205 204 
4 186 187 206 205 
4 187 188 207 206 
4 188 189 208 207 
4 189 190 209 208 
4 190 408 409 209 
4 28 191 210 29 
4 191 192 211 210 
4 192 193 212 211 
4 193 194 213 212 
4 194 195 214 213 
4 195 196 215 214 
4 196 197 216 215 
4 197 198 217 216 
4 198 199 218 217 
4 199 200 219 218 
4 200 201 220 219 
4 201 202 221 220 
4 202 203 222 221 
4 203 204 223 222 
4 204 205 224 223 
4 205 206 225 224 
4 206 207 226 225 
4 207 208 227 226 
4 208 209 228 227 
4 209 409 410 228 
4 29 210 229 30 
4 210 211 230 229 
4 211 212 231 230 
4 212 213 232 231 
4 213 214 233 232 
4 214 215 234 233 
4 215 216 235 234 
4 216 217 236 235 
4 217 218 237 236 
4 218 219 238 237 
4 219 220 239 238 
4 220 221 240 239 
4 221 222 241 240 
4 222 223 242 241 
4 223 224 243 242 
4 224 225 244 243 
4 225 226 245 244 
4 226 227 246 245 
4 227 228 247 246 
4 228 410 411 247 
4 30 229 248 31 
4 229 230 249 248 
4 230 231 250 249 
4 231 232 251 250 
4 232 233 252 251 
4 233 234 253 252 
4 234 235 254 253 
4 235 236 255 254 
4 236 237 256 255 
4 237 238 257 256 
4 238 239 258 257 
4 239 240 259 258 
4 240 241 260 259 
4 241 242 261 260 
4 242 243 262 261 
4 243 244 263 262 
4 244 245 264 263 
4 245 246 265 264 
4 246 247 266 265 
4 247 411 412 266 
4 31 248 267 32 
4 248 249 268 267 
4 249 250 269 268 
4 250 251 270 269 
4 251 252 271 270 
4 252 253 272 271 
4 253 254 273 272 
4 254 255 274 273 
4 255 256 275 274 
4 256 257 276 275 
4 257 258 277 276 
4 258 259 278 277 
4 259 260 279 278 
4 260 261 280 279 
4 261 262 281 280 
4 262 263 282 281 
4 263 264 283 282 
4 264 265 284 283 
4 265 266 285 284 
4 266 412 413 285 
4 32 267 286 33 
4 267 268 287 286 
4 268 269 288 287 
4 269 270 289 288 
4 270 271 290 289 
4 271 272 291 290 
4 272 273 292 291 
4 273 274 293 292 
4 274 275 294 293 
4 275 276 295 294 
4 276 277 296 295 
4 277 278 297 296 
4 278 279 298 297 
4 279 280 299 298 
4 280 281 300 299 
4 281 282 301 300 
4 282 283 302 301 
4 283 284 303 302 
4 284 285 304 303 
4 285 413 414 304 
4 33 286 305 34 
4 286 287 306 305 
4 287 288 307 306 
4 288 289 308 307 
4 289 290 309 308 
4 290 291 310 309 
4 291 292 311 310 
4 292 293 312 311 
4 293 294 313 312 
4 294 295 314 313 
4 295 296 315 314 
4 296 297 316 315 
4 297 298 317 316 
4 298 299 318 317 
4 299 300 319 318 
4 300 301 320 319 
4 301 302 321 320 
4 302 303 322 321 
4 303 304 323 322 
4 304 414 415 323 
4 34 305 324 35 
4 305 306 325 324 
4 306 307 326 325 
4 307 308 327 326 
4 308 309 328 327 
4 309 310 329 328 
4 310 311 330 329 
4 311 312 331 330 
4 312 313 332 331 
4 313 314 333 332 
4 314 315 334 333 
4 315 316 335 334 
4 316 317 336 335 
4 317 318 337 336 
4 318 319 338 337 
4 319 320 339 338 
4 320 321 340 339 
4 321 322 341 340 
4 322 323 342 341 
4 323 415 416 342 
4 35 324 343 36 
4 324 325 344 343 
4 325 326 345 344 
4 326 327 346 345 
4 327 328 347 346 
4 328 329 348 347 
4 329 330 349 348 
4 330 331 350 349 
4 331 332 351 350 
4 332 333 352 351 
4 333 334 353 352 
4 334 335 354 353 
4 335 336 355 354 
4 336 337 356 355 
4 337 338 357 356 
4 338 339 358 357 
4 339 340 359 358 
4 340 341 360 359 
4 341 342 361 360 
4 342 416 417 361 
4 36 343 362 37 
4 343 344 363 362 
4 344 345 364 363 
4 345 346 365 364 
4 346 347 366 365 
4 347 348 367 366 
4 348 349 368 367 
4 349 350 369 368 
4 350 351 370 369 
4 351 352 371 370 
4 352 353 372 371 
4 353 354 373 372 
4 354 355 374 373 
4 355 356 375 374 
4 356 357 376 375 
4 357 358 377 376 
4 358 359 378 377 
4 359 360 379 378 
4 360 361 380 379 
4 361 417 418 380 
4 37 362 381 38 
4 362 363 382 381 
4 363 364 383 382 
4 364 365 384 383 
4 365 366 385 384 
4 366 367 386 385 
4 367 368 387 386 
4 368 369 388 387 
4 369 370 389 388 
4 370 371 390 389 
4 371 372 391 390 
4 372 373 392 391 
4 373 374 393 392 
4 374 375 394 393 
4 375 376 395 394 
4 376 377 396 395 
4 377 378 397 396 
4 378 379 398 397 
4 379 380 399 398 
4 380 418 419 399 
4 38 381 420 421 
4 381 382 422 420 
4 382 383 423 422 
4 383 384 424 423 
4 384 385 425 424 
4 385 386 426 425 
4 386 387 427 426 
4 387 388 428 427 
4 388 389 429 428 
4 389 390 430 429 
4 390 391 431 430 
4 391 392 432 431 
4 392 393 433 432 
4 393 394 434 433 
4 394 395 435 434 
4 395 396 436 435 
4 396 397 437 436 
4 397 398 438 437 
4 398 399 439 438 
4 399 419 439 439 
CELL_TYPES 400
9
9
9
9
9
9
9
9
9
9
9
9
9
9
9
9
9
9
9
9
9
9
9
9
9
9
9
9
9
9
9
9
9
9
9
9
9
9
9
9
9
9
9
9
9
9
9
9
9
9
9
9
9
9
9
9
9
9
9
9
9
9
9
9
9
9
9
9
9
9
9
9
9
9
9
9
9
9
9
9
9
9
9
9
9
9
9
9
9
9
9
9
9
9
9
9
9
9
9
9
9
9
9
9
9
9
9
9
9
9
9
9
9
9
9
9
9
9
9
9
9
9
9
9
9
9
9
9
9
9
9
9
9
9
9
9
9
9
9
9
9
9
9
9
9
9
9
9
9
9
9
9
9
9
9
9
9
9
9
9
9
9
9
9
9
9
9
9
9
9
9
9
9
9
9
9
9
9
9
9
9
9
9
9
9
9
9
9
9
9
9
9
9
9
9
9
9
9
9
9
9
9
9
9
9
9
9
9
9
9
9
9
9
9
9
9
9
9
9
9
9
9
9
9
9
9
9
9
9
9
9
9
9
9
9
9
9
9
9
9
9
9
9
9
9
9
9
9
9
9
9
9
9
9
9
9
9
9
9
9
9
9
9
9
9
9
9
9
9
9
9
9
9
9
9
9
9
9
9
9
9
9
9
9
9
9
9
9
9
9
9
9
9
9
9
9
9
9
9
9
9
9
9
9
9
9
9
9
9
9
9
9
9
9
9
9
9
9
9
9
9
9
9
9
9
9
9
9
9
9
9
9
9
9
9
9
9
9
9
9
9
9
9
9
9
9
9
9
9
9
9
9
9
9
9
9
9
9
9
9
9
9
9
9
9
9
9
9
9
9
9
9
9
9
9
9
9
9
9
9
9
9
9
9
9
9
9
9
9
9
9
9
9
9
9
9
9
9
9
9
CELL_DATA 400
SCALARS _ELEM_NUM double 1
LOOKUP_TABLE default
1 2 3 4 5 6 7 8 9 10 11 12 13 14 15 16 17 18 19 20 21 22 23 24 25 26 27 28 29 30 31 32 33 34 35 36 37 38 39 40 41 42 43 44 45 46 47 48 49 50 51 52 53 54 55 56 57 58 59 60 61 62 63 64 65 66 67 68 69 70 71 72 73 74 75 76 77 78 79 80 81 82 83 84 85 86 87 88 89 90 91 92 93 94 95 96 97 98 99 100 101 102 103 104 105 106 107 108 109 110 111 112 113 114 115 116 117 118 119 120 121 122 123 124 125 126 127 128 129 130 131 132 133 134 135 136 137 138 139 140 141 142 143 144 145 146 147 148 149 150 151 152 153 154 155 156 157 158 159 160 161 162 163 164 165 166 167 168 169 170 171 172 173 174 175 176 177 178 179 180 181 182 183 184 185 186 187 188 189 190 191 192 193 194 195 196 197 198 199 200 201 202 203 204 205 206 207 208 209 210 211 212 213 214 215 216 217 218 219 220 221 222 223 224 225 226 227 228 229 230 231 232 233 234 235 236 237 238 239 240 241 242 243 244 245 246 247 248 249 250 251 252 253 254 255 256 257 258 259 260 261 262 263 264 265 266 267 268 269 270 271 272 273 274 275 276 277 278 279 280 281 282 283 284 285 286 287 288 289 290 291 292 293 294 295 296 297 298 299 300 301 302 303 304 305 306 307 308 309 310 311 312 313 314 315 316 317 318 319 320 321 322 323 324 325 326 327 328 329 330 331 332 333 334 335 336 337 338 339 340 341 342 343 344 345 346 347 348 349 350 351 352 353 354 355 356 357 358 359 360 361 362 363 364 365 366 367 368 369 370 371 372 373 374 375 376 377 378 379 380 381 382 383 384 385 386 387 388 389 390 391 392 393 394 395 396 397 398 399 400 
POINT_DATA 440
SCALARS _NODE_NUM double 1
LOOKUP_TABLE default
1 2 21 3 4 5 6 7 8 9 10 11 12 13 14 15 16 17 18 19 20 41 61 81 101 121 141 161 181 201 221 241 261 281 301 321 341 361 381 22 23 24 25 26 27 28 29 30 31 32 33 34 35 36 37 38 39 40 42 43 44 45 46 47 48 49 50 51 52 53 54 55 56 57 58 59 60 62 63 64 65 66 67 68 69 70 71 72 73 74 75 76 77 78 79 80 82 83 84 85 86 87 88 89 90 91 92 93 94 95 96 97 98 99 100 102 103 104 105 106 107 108 109 110 111 112 113 114 115 116 117 118 119 120 122 123 124 125 126 127 128 129 130 131 132 133 134 135 136 137 138 139 140 142 143 144 145 146 147 148 149 150 151 152 153 154 155 156 157 158 159 160 162 163 164 165 166 167 168 169 170 171 172 173 174 175 176 177 178 179 180 182 183 184 185 186 187 188 189 190 191 192 193 194 195 196 197 198 199 200 202 203 204 205 206 207 208 209 210 211 212 213 214 215 216 217 218 219 220 222 223 224 225 226 227 228 229 230 231 232 233 234 235 236 237 238 239 240 242 243 244 245 246 247 248 249 250 251 252 253 254 255 256 257 258 259 260 262 263 264 265 266 267 268 269 270 271 272 273 274 275 276 277 278 279 280 282 283 284 285 286 287 288 289 290 291 292 293 294 295 296 297 298 299 300 302 303 304 305 306 307 308 309 310 311 312 313 314 315 316 317 318 319 320 322 323 324 325 326 327 328 329 330 331 332 333 334 335 336 337 338 339 340 342 343 344 345 346 347 348 349 350 351 352 353 354 355 356 357 358 359 360 362 363 364 365 366 367 368 369 370 371 372 373 374 375 376 377 378 379 380 382 383 384 385 386 387 388 389 390 391 392 393 394 395 396 397 398 399 400 401 421 441 461 481 501 521 541 561 581 601 621 641 661 681 701 721 741 761 781 1161 1181 1141 1121 1101 1081 1061 1041 1021 1001 981 961 941 921 901 881 861 841 821 801 
SCALARS array_000 double 1
LOOKUP_TABLE default
14.2711 14.329 14.3171 14.3898 14.4531 14.5188 14.5865 14.6561 14.7272 14.7994 14.8725 14.9461 15.0199 15.0936 15.1668 15.2391 15.3104 15.3802 15.4483 15.5145 15.5783 14.3658 14.4173 14.4712 14.5273 14.5854 14.6453 14.7067 14.7693 14.8329 14.8971 14.9616 15.0262 15.0906 15.1545 15.2176 15.2796 15.3403 15.3995 14.3782 14.4426 14.51 14.58 14.6524 14.7268 14.8029 14.88 14.9579 15.036 15.1139 15.1911 15.2672 15.3416 15.414 15.4841 15.5516 15.616 15.6774 14.4305 14.4988 14.5704 14.645 14.7222 14.8015 14.8826 14.9647 15.0472 15.1297 15.2114 15.2916 15.37 15.4458 15.5187 15.5882 15.6541 15.7161 15.7741 14.4858 14.5581 14.6341 14.7134 14.7955 14.8799 14.9659 15.0529 15.14 15.2265 15.3116 15.3944 15.4745 15.551 15.6236 15.6918 15.7554 15.8142 15.868 14.5437 14.6203 14.7009 14.785 14.872 14.9615 15.0524 15.1441 15.2355 15.3257 15.4137 15.4987 15.5797 15.6563 15.7278 15.794 15.8546 15.9095 15.9589 14.604 14.6851 14.7703 14.8593 14.9513 15.0457 15.1414 15.2376 15.3329 15.4264 15.5168 15.6032 15.6847 15.7606 15.8305 15.894 15.951 16.0017 16.0461 14.6664 14.7521 14.842 14.9357 15.0326 15.1317 15.232 15.3322 15.4311 15.5273 15.6196 15.7068 15.7881 15.8628 15.9304 15.9907 16.0439 16.09 16.1293 14.7307 14.8208 14.9154 15.0137 15.1151 15.2186 15.323 15.4268 15.5286 15.627 15.7205 15.808 15.8885 15.9614 16.0264 16.0833 16.1324 16.1738 16.2082 14.7964 14.8909 14.9898 15.0925 15.198 15.3054 15.4132 15.52 15.6241 15.7239 15.818 15.9052 15.9845 16.0553 16.1174 16.1708 16.2158 16.2528 16.2823 14.8632 14.9618 15.0647 15.1712 15.2803 15.3909 15.5014 15.6104 15.7159 15.8165 15.9106 15.9969 16.0747 16.1432 16.2024 16.2523 16.2934 16.3262 16.3513 14.9307 15.033 15.1394 15.249 15.361 15.4739 15.5863 15.6965 15.8028 15.9033 15.9968 16.0818 16.1577 16.2239 16.2802 16.327 16.3646 16.3936 16.4148 14.9983 15.1039 15.2131 15.3252 15.4391 15.5535 15.6667 15.7772 15.8832 15.9831 16.0753 16.1587 16.2326 16.2964 16.3502 16.3941 16.4287 16.4547 16.4727 15.0659 15.174 15.2853 15.3989 15.5138 15.6285 15.7416 15.8515 15.9563 16.0547 16.1451 16.2266 16.2984 16.3601 16.4116 16.4532 16.4855 16.509 16.5245 15.1328 15.2427 15.3552 15.4694 15.5842 15.6983 15.8102 15.9184 16.0213 16.1175 16.2058 16.2851 16.3547 16.4144 16.4641 16.504 16.5345 16.5564 16.5702 15.1989 15.3097 15.4225 15.5362 15.6499 15.7623 15.872 15.9776 16.0778 16.1712 16.2569 16.3338 16.4013 16.4593 16.5075 16.5461 16.5757 16.5966 16.6094 15.2636 15.3745 15.4866 15.5989 15.7104 15.8201 15.9266 16.0289 16.1257 16.2159 16.2985 16.3728 16.4383 16.4947 16.5418 16.5797 16.6088 16.6295 16.6422 15.3267 15.4367 15.5471 15.657 15.7654 15.8715 15.9741 16.0724 16.1652 16.2517 16.331 16.4027 16.4661 16.521 16.5672 16.6048 16.634 16.6551 16.6683 15.3878 15.4961 15.6039 15.7104 15.8149 15.9166 16.0147 16.1083 16.1967 16.2791 16.355 16.4238 16.4851 16.5386 16.5841 16.6217 16.6514 16.6734 16.6878 15.4467 15.5524 15.6567 15.7591 15.8589 15.9557 16.0486 16.1372 16.2208 16.2989 16.3711 16.4369 16.496 16.5481 16.5931 16.6308 16.6613 16.6845 16.7006 15.5032 15.6054 15.7054 15.803 15.8976 15.9888 16.0763 16.1595 16.2381 16.3117 16.38 16.4427 16.4995 16.5502 16.5946 16.6325 16.6639 16.6887 16.7068 15.5917 15.6913 15.7885 15.883 15.9742 16.0618 16.1453 16.2244 16.2986 16.3677 16.4312 16.489 16.5407 16.5861 16.6251 16.6575 16.6833 16.7023 16.7146 16.7202 15.5108 15.4068 15.6132 15.7135 15.8113 15.9061 15.9975 16.085 16.1683 16.247 16.3206 16.3889 16.4515 16.5082 16.5587 16.6029 16.6407 16.6718 16.6963 16.714 
