# vtk DataFile Version 3.0
This file was generated by ESMC 
ASCII
DATASET UNSTRUCTURED_GRID
POINTS 440 double
-0.495638 0.660309 0.564211
-0.51583 0.687125 0.511643
-0.528935 0.612802 0.587113
-0.534075 0.711348 0.456889
-0.550277 0.732851 0.400156
-0.564345 0.751516 0.341669
-0.5762 0.76724 0.281668
-0.58577 0.779932 0.220407
-0.593 0.789518 0.158152
-0.597845 0.795941 0.0951804
-0.600275 0.799162 0.0317751
-0.600275 0.799162 -0.0317751
-0.597845 0.795941 -0.0951804
-0.593 0.789518 -0.158152
-0.58577 0.779932 -0.220407
-0.576199 0.76724 -0.281668
-0.564345 0.751516 -0.341669
-0.550277 0.732851 -0.400156
-0.534075 0.711348 -0.456889
-0.51583 0.687125 -0.511643
-0.495638 0.660309 -0.564211
-0.560281 0.56273 0.6078
-0.589523 0.510278 0.626162
-0.616515 0.455648 0.642101
-0.641119 0.39906 0.655528
-0.66321 0.340749 0.666365
-0.682671 0.280965 0.67455
-0.699404 0.219972 0.680034
-0.713321 0.158043 0.682785
-0.724357 0.0954582 0.682785
-0.732459 0.0325035 0.680034
-0.737597 -0.0305339 0.67455
-0.739757 -0.0933683 0.666365
-0.738942 -0.155718 0.655528
-0.735175 -0.217309 0.642101
-0.728495 -0.277876 0.626162
-0.718956 -0.337166 0.6078
-0.706627 -0.394939 0.587113
-0.691587 -0.45097 0.564211
-0.552379 0.639888 0.534247
-0.573778 0.664602 0.478626
-0.592958 0.686747 0.420452
-0.609754 0.706133 0.359966
-0.624014 0.722588 0.297443
-0.635601 0.735955 0.2332
-0.644398 0.746102 0.167579
-0.650315 0.752927 0.100955
-0.653289 0.756357 0.03372
-0.653289 0.756357 -0.03372
-0.650315 0.752927 -0.100955
-0.644398 0.746102 -0.167579
-0.635601 0.735955 -0.2332
-0.624014 0.722588 -0.297444
-0.609754 0.706134 -0.359965
-0.592958 0.686747 -0.420452
-0.573778 0.664602 -0.478626
-0.552379 0.639888 -0.534247
-0.528935 0.612802 -0.587113
-0.587017 0.589517 0.55487
-0.611654 0.614191 0.498647
-0.633935 0.636499 0.439312
-0.65361 0.656192 0.377102
-0.670437 0.67303 0.312322
-0.684196 0.686795 0.245334
-0.694696 0.697298 0.176561
-0.701785 0.704387 0.106473
-0.705356 0.707959 0.0355815
-0.705356 0.707959 -0.0355815
-0.701785 0.704387 -0.106473
-0.694696 0.697298 -0.176561
-0.684196 0.686795 -0.245334
-0.670437 0.67303 -0.312322
-0.65361 0.656192 -0.377102
-0.633935 0.636499 -0.439312
-0.611654 0.614191 -0.498647
-0.587017 0.589517 -0.55487
-0.56028 0.56273 -0.6078
-0.619508 0.536174 0.573347
-0.647382 0.56024 0.516748
-0.672805 0.582182 0.456506
-0.695431 0.601704 0.392847
-0.714919 0.618515 0.326084
-0.730951 0.632342 0.256621
-0.743247 0.642944 0.184952
-0.751579 0.650127 0.111645
-0.755786 0.653754 0.0373284
-0.755786 0.653754 -0.0373284
-0.751579 0.650127 -0.111645
-0.743247 0.642944 -0.184952
-0.730951 0.632342 -0.256621
-0.714919 0.618515 -0.326084
-0.695431 0.601704 -0.392847
-0.672805 0.582182 -0.456506
-0.647382 0.56024 -0.516748
-0.619508 0.536174 -0.573347
-0.589522 0.510278 -0.626163
-0.649617 0.480063 0.589523
-0.680633 0.502934 0.532725
-0.709141 0.523948 0.471803
-0.734696 0.54278 0.406955
-0.756852 0.559103 0.338494
-0.775184 0.572606 0.266856
-0.78931 0.583008 0.192593
-0.798914 0.59008 0.116367
-0.803775 0.593659 0.0389261
-0.803775 0.593659 -0.0389261
-0.798914 0.59008 -0.116367
-0.789309 0.583008 -0.192593
-0.775184 0.572606 -0.266856
-0.756852 0.559103 -0.338494
-0.734696 0.54278 -0.406955
-0.709141 0.523948 -0.471803
-0.680633 0.502934 -0.532725
-0.649617 0.480063 -0.589523
-0.616514 0.455648 -0.642102
-0.677117 0.421426 0.603251
-0.711082 0.442523 0.546385
-0.74251 0.462038 0.484974
-0.770864 0.47964 0.419183
-0.795592 0.494988 0.349315
-0.816157 0.507749 0.275823
-0.832071 0.517622 0.199314
-0.842926 0.524355 0.120532
-0.84843 0.527769 0.0403372
-0.84843 0.527769 -0.0403372
-0.842926 0.524355 -0.120532
-0.832071 0.517622 -0.199314
-0.816157 0.507749 -0.275823
-0.795592 0.494988 -0.349315
-0.770864 0.47964 -0.419183
-0.74251 0.462038 -0.484974
-0.711082 0.442523 -0.546385
-0.677117 0.421426 -0.603252
-0.641119 0.39906 -0.655528
-0.701796 0.360543 0.614403
-0.738412 0.37932 0.557552
-0.772485 0.39679 0.495807
-0.803392 0.412632 0.429297
-0.830481 0.426514 0.358311
-0.853109 0.438108 0.283312
-0.870683 0.447111 0.204946
-0.882703 0.453267 0.124031
-0.888808 0.456394 0.0415239
-0.888808 0.456394 -0.041524
-0.882703 0.453267 -0.124031
-0.870683 0.447111 -0.204946
-0.853109 0.438108 -0.283312
-0.830481 0.426514 -0.358311
-0.803392 0.412632 -0.429297
-0.772485 0.39679 -0.495807
-0.738412 0.379321 -0.557552
-0.701796 0.360543 -0.614403
-0.66321 0.340749 -0.666365
-0.723458 0.297729 0.622869
-0.762334 0.313704 0.566071
-0.798669 0.328632 0.504113
-0.831766 0.342227 0.437089
-0.860889 0.354186 0.36527
-0.885301 0.36421 0.289126
-0.904315 0.372015 0.209331
-0.917348 0.377365 0.12676
-0.923976 0.380086 0.0424508
-0.923976 0.380086 -0.0424509
-0.917348 0.377365 -0.12676
-0.904315 0.372015 -0.209331
-0.885301 0.36421 -0.289126
-0.860889 0.354186 -0.36527
-0.831766 0.342227 -0.437089
-0.798669 0.328632 -0.504113
-0.762334 0.313704 -0.566072
-0.723458 0.29773 -0.622869
-0.682671 0.280965 -0.67455
-0.741933 0.233335 0.628562
-0.782592 0.246108 0.571823
-0.820707 0.25808 0.50974
-0.855527 0.269014 0.442386
-0.886248 0.278661 0.370016
-0.912062 0.286765 0.293102
-0.932208 0.293089 0.212337
-0.946038 0.29743 0.128634
-0.953079 0.29964 0.0430875
-0.953079 0.29964 -0.0430876
-0.946038 0.29743 -0.128634
-0.932208 0.293089 -0.212337
-0.912062 0.286765 -0.293102
-0.886248 0.278661 -0.370016
-0.855527 0.269014 -0.442386
-0.820707 0.25808 -0.50974
-0.782592 0.246108 -0.571823
-0.741933 0.233335 -0.628562
-0.699403 0.219972 -0.680035
-0.75708 0.167734 0.631424
-0.798977 0.177011 0.57472
-0.838313 0.185721 0.512581
-0.8743 0.193689 0.445066
-0.906096 0.200728 0.372423
-0.932845 0.20665 0.295121
-0.953742 0.211276 0.213865
-0.968099 0.214454 0.129588
-0.975412 0.216073 0.0434117
-0.975412 0.216073 -0.0434119
-0.968099 0.214454 -0.129588
-0.953742 0.211276 -0.213865
-0.932845 0.20665 -0.295121
-0.906096 0.200728 -0.372423
-0.8743 0.193689 -0.445066
-0.838313 0.185721 -0.512581
-0.798977 0.177011 -0.57472
-0.75708 0.167734 -0.631424
-0.713321 0.158043 -0.682785
-0.768791 0.101318 0.631423
-0.811334 0.10693 0.57472
-0.851277 0.112199 0.512581
-0.887819 0.11702 0.445066
-0.920105 0.12128 0.372423
-0.947266 0.124864 0.295121
-0.968485 0.127664 0.213865
-0.983064 0.129588 0.129588
-0.990488 0.130568 0.0434117
-0.990488 0.130568 -0.0434119
-0.983064 0.129588 -0.129588
-0.968485 0.127664 -0.213865
-0.947266 0.124864 -0.295121
-0.920105 0.12128 -0.372423
-0.887819 0.11702 -0.445066
-0.851277 0.112199 -0.512581
-0.811334 0.10693 -0.57472
-0.768791 0.101318 -0.631424
-0.724357 0.0954583 -0.682785
-0.776994 0.0344924 0.628562
-0.81957 0.0363959 0.571823
-0.859481 0.0381825 0.50974
-0.895941 0.0398161 0.442386
-0.928109 0.041259 0.370016
-0.955137 0.0424722 0.293102
-0.976231 0.0434197 0.212337
-0.990712 0.0440709 0.128634
-0.998084 0.0444024 0.0430875
-0.998084 0.0444024 -0.0430876
-0.990712 0.0440709 -0.128634
-0.976231 0.0434197 -0.212337
-0.955137 0.0424722 -0.293102
-0.928109 0.041259 -0.370016
-0.895941 0.0398163 -0.442386
-0.859481 0.0381825 -0.50974
-0.81957 0.0363961 -0.571823
-0.776994 0.0344924 -0.628562
-0.732459 0.0325035 -0.680035
-0.781658 -0.0323372 0.622869
-0.823653 -0.0340525 0.566071
-0.862902 -0.0356525 0.504113
-0.898653 -0.0371073 0.437089
-0.93011 -0.0383851 0.36527
-0.956478 -0.0394546 0.289126
-0.977015 -0.0402863 0.209331
-0.991092 -0.0408561 0.12676
-0.998251 -0.0411455 0.0424508
-0.998251 -0.0411455 -0.0424509
-0.991092 -0.0408561 -0.12676
-0.977015 -0.0402863 -0.209331
-0.956478 -0.0394546 -0.289126
-0.93011 -0.0383851 -0.36527
-0.898653 -0.0371073 -0.437089
-0.862902 -0.0356525 -0.504113
-0.823653 -0.0340525 -0.566072
-0.781658 -0.0323372 -0.622869
-0.737597 -0.0305339 -0.67455
-0.782785 -0.098771 0.614403
-0.823615 -0.103893 0.557552
-0.861609 -0.108655 0.495807
-0.89607 -0.112971 0.429297
-0.926273 -0.116751 0.358311
-0.951503 -0.119906 0.283311
-0.971095 -0.122356 0.204946
-0.984496 -0.12403 0.124031
-0.991303 -0.12488 0.0415239
-0.991303 -0.12488 -0.0415241
-0.984496 -0.12403 -0.124031
-0.971095 -0.122356 -0.204946
-0.951502 -0.119906 -0.283312
-0.926273 -0.116751 -0.358311
-0.89607 -0.112971 -0.429297
-0.861609 -0.108655 -0.495807
-0.823615 -0.103893 -0.557552
-0.782785 -0.098771 -0.614403
-0.739756 -0.0933683 -0.666365
-0.780418 -0.164423 0.603252
-0.81955 -0.172631 0.546385
-0.855757 -0.180221 0.484974
-0.888422 -0.187064 0.419183
-0.916908 -0.193028 0.349315
-0.940597 -0.197986 0.275823
-0.958928 -0.20182 0.199314
-0.971431 -0.204435 0.120532
-0.977771 -0.205761 0.0403371
-0.977771 -0.205761 -0.0403373
-0.971431 -0.204435 -0.120532
-0.958928 -0.20182 -0.199314
-0.940597 -0.197986 -0.275823
-0.916908 -0.193028 -0.349315
-0.888422 -0.187064 -0.419183
-0.855757 -0.180221 -0.484974
-0.81955 -0.172631 -0.546385
-0.780418 -0.164423 -0.603252
-0.738942 -0.155718 -0.655528
-0.774631 -0.22893 0.589523
-0.8116 -0.239813 0.532725
-0.845575 -0.249809 0.471803
-0.87603 -0.258765 0.406955
-0.902433 -0.266526 0.338494
-0.924278 -0.272945 0.266856
-0.941109 -0.277889 0.192593
-0.952553 -0.281249 0.116367
-0.958344 -0.28295 0.0389261
-0.958344 -0.28295 -0.0389262
-0.952553 -0.28125 -0.116367
-0.941109 -0.277889 -0.192593
-0.924278 -0.272945 -0.266856
-0.902433 -0.266526 -0.338494
-0.87603 -0.258765 -0.406955
-0.845575 -0.249809 -0.471803
-0.8116 -0.239813 -0.532725
-0.774631 -0.22893 -0.589523
-0.735175 -0.217309 -0.642101
-0.765529 -0.291955 0.573347
-0.799953 -0.305036 0.516748
-0.831348 -0.316959 0.456506
-0.859286 -0.327566 0.392847
-0.883348 -0.336697 0.326083
-0.903143 -0.344207 0.256621
-0.918323 -0.349964 0.184952
-0.928609 -0.353865 0.111645
-0.933803 -0.355834 0.0373284
-0.933803 -0.355834 -0.0373285
-0.928609 -0.353865 -0.111645
-0.918323 -0.349964 -0.184952
-0.903143 -0.344207 -0.256621
-0.883348 -0.336697 -0.326084
-0.859286 -0.327566 -0.392847
-0.831348 -0.316959 -0.456506
-0.799953 -0.305035 -0.516748
-0.765529 -0.291955 -0.573347
-0.728495 -0.277876 -0.626162
-0.753243 -0.353193 0.55487
-0.784832 -0.367953 0.498647
-0.8134 -0.381295 0.439312
-0.838623 -0.393071 0.377102
-0.860194 -0.403139 0.312322
-0.877831 -0.411368 0.245334
-0.89129 -0.417646 0.176561
-0.900377 -0.421883 0.106473
-0.904954 -0.424018 0.0355814
-0.904955 -0.424018 -0.0355815
-0.900377 -0.421883 -0.106473
-0.89129 -0.417646 -0.176561
-0.877831 -0.411368 -0.245334
-0.860194 -0.403139 -0.312322
-0.838623 -0.393071 -0.377102
-0.8134 -0.381295 -0.439312
-0.784832 -0.367953 -0.498647
-0.753242 -0.353193 -0.55487
-0.718956 -0.337166 -0.6078
-0.737922 -0.412373 0.534247
-0.766482 -0.428278 0.478626
-0.792079 -0.442527 0.420452
-0.814493 -0.455 0.359965
-0.833521 -0.465585 0.297443
-0.848981 -0.474183 0.2332
-0.860718 -0.48071 0.167579
-0.868612 -0.485099 0.100955
-0.872581 -0.487305 0.0337199
-0.872581 -0.487305 -0.0337201
-0.868612 -0.485099 -0.100955
-0.860718 -0.48071 -0.167579
-0.848981 -0.474183 -0.2332
-0.833521 -0.465585 -0.297443
-0.814493 -0.455 -0.359965
-0.792079 -0.442527 -0.420452
-0.766482 -0.428278 -0.478626
-0.737922 -0.412373 -0.534247
-0.706627 -0.394939 -0.587113
-0.719732 -0.469262 0.511643
-0.745162 -0.485784 0.456889
-0.767741 -0.500448 0.400156
-0.787345 -0.513177 0.341669
-0.803862 -0.523898 0.281668
-0.817196 -0.532551 0.220407
-0.827269 -0.539086 0.158152
-0.834018 -0.543465 0.0951803
-0.837403 -0.545661 0.031775
-0.837403 -0.545661 -0.0317752
-0.834018 -0.543465 -0.0951804
-0.827269 -0.539086 -0.158152
-0.817196 -0.532551 -0.220407
-0.803862 -0.523898 -0.281668
-0.787345 -0.513177 -0.341669
-0.767741 -0.500449 -0.400156
-0.745162 -0.485784 -0.456889
-0.719732 -0.469262 -0.511643
-0.691587 -0.45097 -0.564211
-0.457666 0.653614 -0.60277
-0.489348 0.605822 -0.627311
-0.519228 0.555491 -0.649485
-0.547164 0.502809 -0.669175
-0.573017 0.447978 -0.686271
-0.596658 0.39122 -0.700675
-0.617969 0.332772 -0.712305
-0.63684 0.272884 -0.721089
-0.653176 0.211821 -0.726976
-0.666894 0.149857 -0.729928
-0.67793 0.087272 -0.729928
-0.686231 0.0243524 -0.726976
-0.691765 -0.038615 -0.721089
-0.694515 -0.101345 -0.712305
-0.69448 -0.163558 -0.700675
-0.691677 -0.224979 -0.686271
-0.686136 -0.285345 -0.669175
-0.677904 -0.344404 -0.649485
-0.66704 -0.401919 -0.627311
-0.653614 -0.457665 -0.60277
-0.687125 -0.515829 0.511644
-0.660309 -0.495638 0.564211
-0.711348 -0.534075 0.456889
-0.732851 -0.550277 0.400157
-0.751516 -0.564345 0.34167
-0.76724 -0.576199 0.281668
-0.779932 -0.58577 0.220407
-0.789518 -0.593 0.158153
-0.795941 -0.597844 0.0951805
-0.799163 -0.600274 0.0317752
-0.799163 -0.600274 -0.031775
-0.795941 -0.597844 -0.0951802
-0.789518 -0.593 -0.158152
-0.779932 -0.58577 -0.220407
-0.76724 -0.576199 -0.281668
-0.751516 -0.564345 -0.341669
-0.732851 -0.550277 -0.400156
-0.711348 -0.534075 -0.456889
-0.687125 -0.515829 -0.511643
-0.66031 -0.495638 -0.564211
CELLS 400 2000
4 0 1 39 2 
4 1 3 40 39 
4 3 4 41 40 
4 4 5 42 41 
4 5 6 43 42 
4 6 7 44 43 
4 7 8 45 44 
4 8 9 46 45 
4 9 10 47 46 
4 10 11 48 47 
4 11 12 49 48 
4 12 13 50 49 
4 13 14 51 50 
4 14 15 52 51 
4 15 16 53 52 
4 16 17 54 53 
4 17 18 55 54 
4 18 19 56 55 
4 19 20 57 56 
4 20 400 401 57 
4 2 39 58 21 
4 39 40 59 58 
4 40 41 60 59 
4 41 42 61 60 
4 42 43 62 61 
4 43 44 63 62 
4 44 45 64 63 
4 45 46 65 64 
4 46 47 66 65 
4 47 48 67 66 
4 48 49 68 67 
4 49 50 69 68 
4 50 51 70 69 
4 51 52 71 70 
4 52 53 72 71 
4 53 54 73 72 
4 54 55 74 73 
4 55 56 75 74 
4 56 57 76 75 
4 57 401 402 76 
4 21 58 77 22 
4 58 59 78 77 
4 59 60 79 78 
4 60 61 80 79 
4 61 62 81 80 
4 62 63 82 81 
4 63 64 83 82 
4 64 65 84 83 
4 65 66 85 84 
4 66 67 86 85 
4 67 68 87 86 
4 68 69 88 87 
4 69 70 89 88 
4 70 71 90 89 
4 71 72 91 90 
4 72 73 92 91 
4 73 74 93 92 
4 74 75 94 93 
4 75 76 95 94 
4 76 402 403 95 
4 22 77 96 23 
4 77 78 97 96 
4 78 79 98 97 
4 79 80 99 98 
4 80 81 100 99 
4 81 82 101 100 
4 82 83 102 101 
4 83 84 103 102 
4 84 85 104 103 
4 85 86 105 104 
4 86 87 106 105 
4 87 88 107 106 
4 88 89 108 107 
4 89 90 109 108 
4 90 91 110 109 
4 91 92 111 110 
4 92 93 112 111 
4 93 94 113 112 
4 94 95 114 113 
4 95 403 404 114 
4 23 96 115 24 
4 96 97 116 115 
4 97 98 117 116 
4 98 99 118 117 
4 99 100 119 118 
4 100 101 120 119 
4 101 102 121 120 
4 102 103 122 121 
4 103 104 123 122 
4 104 105 124 123 
4 105 106 125 124 
4 106 107 126 125 
4 107 108 127 126 
4 108 109 128 127 
4 109 110 129 128 
4 110 111 130 129 
4 111 112 131 130 
4 112 113 132 131 
4 113 114 133 132 
4 114 404 405 133 
4 24 115 134 25 
4 115 116 135 134 
4 116 117 136 135 
4 117 118 137 136 
4 118 119 138 137 
4 119 120 139 138 
4 120 121 140 139 
4 121 122 141 140 
4 122 123 142 141 
4 123 124 143 142 
4 124 125 144 143 
4 125 126 145 144 
4 126 127 146 145 
4 127 128 147 146 
4 128 129 148 147 
4 129 130 149 148 
4 130 131 150 149 
4 131 132 151 150 
4 132 133 152 151 
4 133 405 406 152 
4 25 134 153 26 
4 134 135 154 153 
4 135 136 155 154 
4 136 137 156 155 
4 137 138 157 156 
4 138 139 158 157 
4 139 140 159 158 
4 140 141 160 159 
4 141 142 161 160 
4 142 143 162 161 
4 143 144 163 162 
4 144 145 164 163 
4 145 146 165 164 
4 146 147 166 165 
4 147 148 167 166 
4 148 149 168 167 
4 149 150 169 168 
4 150 151 170 169 
4 151 152 171 170 
4 152 406 407 171 
4 26 153 172 27 
4 153 154 173 172 
4 154 155 174 173 
4 155 156 175 174 
4 156 157 176 175 
4 157 158 177 176 
4 158 159 178 177 
4 159 160 179 178 
4 160 161 180 179 
4 161 162 181 180 
4 162 163 182 181 
4 163 164 183 182 
4 164 165 184 183 
4 165 166 185 184 
4 166 167 186 185 
4 167 168 187 186 
4 168 169 188 187 
4 169 170 189 188 
4 170 171 190 189 
4 171 407 408 190 
4 27 172 191 28 
4 172 173 192 191 
4 173 174 193 192 
4 174 175 194 193 
4 175 176 195 194 
4 176 177 196 195 
4 177 178 197 196 
4 178 179 198 197 
4 179 180 199 198 
4 180 181 200 199 
4 181 182 201 200 
4 182 183 202 201 
4 183 184 203 202 
4 184 185 204 203 
4 185 186 205 204 
4 186 187 206 205 
4 187 188 207 206 
4 188 189 208 207 
4 189 190 209 208 
4 190 408 409 209 
4 28 191 210 29 
4 191 192 211 210 
4 192 193 212 211 
4 193 194 213 212 
4 194 195 214 213 
4 195 196 215 214 
4 196 197 216 215 
4 197 198 217 216 
4 198 199 218 217 
4 199 200 219 218 
4 200 201 220 219 
4 201 202 221 220 
4 202 203 222 221 
4 203 204 223 222 
4 204 205 224 223 
4 205 206 225 224 
4 206 207 226 225 
4 207 208 227 226 
4 208 209 228 227 
4 209 409 410 228 
4 29 210 229 30 
4 210 211 230 229 
4 211 212 231 230 
4 212 213 232 231 
4 213 214 233 232 
4 214 215 234 233 
4 215 216 235 234 
4 216 217 236 235 
4 217 218 237 236 
4 218 219 238 237 
4 219 220 239 238 
4 220 221 240 239 
4 221 222 241 240 
4 222 223 242 241 
4 223 224 243 242 
4 224 225 244 243 
4 225 226 245 244 
4 226 227 246 245 
4 227 228 247 246 
4 228 410 411 247 
4 30 229 248 31 
4 229 230 249 248 
4 230 231 250 249 
4 231 232 251 250 
4 232 233 252 251 
4 233 234 253 252 
4 234 235 254 253 
4 235 236 255 254 
4 236 237 256 255 
4 237 238 257 256 
4 238 239 258 257 
4 239 240 259 258 
4 240 241 260 259 
4 241 242 261 260 
4 242 243 262 261 
4 243 244 263 262 
4 244 245 264 263 
4 245 246 265 264 
4 246 247 266 265 
4 247 411 412 266 
4 31 248 267 32 
4 248 249 268 267 
4 249 250 269 268 
4 250 251 270 269 
4 251 252 271 270 
4 252 253 272 271 
4 253 254 273 272 
4 254 255 274 273 
4 255 256 275 274 
4 256 257 276 275 
4 257 258 277 276 
4 258 259 278 277 
4 259 260 279 278 
4 260 261 280 279 
4 261 262 281 280 
4 262 263 282 281 
4 263 264 283 282 
4 264 265 284 283 
4 265 266 285 284 
4 266 412 413 285 
4 32 267 286 33 
4 267 268 287 286 
4 268 269 288 287 
4 269 270 289 288 
4 270 271 290 289 
4 271 272 291 290 
4 272 273 292 291 
4 273 274 293 292 
4 274 275 294 293 
4 275 276 295 294 
4 276 277 296 295 
4 277 278 297 296 
4 278 279 298 297 
4 279 280 299 298 
4 280 281 300 299 
4 281 282 301 300 
4 282 283 302 301 
4 283 284 303 302 
4 284 285 304 303 
4 285 413 414 304 
4 33 286 305 34 
4 286 287 306 305 
4 287 288 307 306 
4 288 289 308 307 
4 289 290 309 308 
4 290 291 310 309 
4 291 292 311 310 
4 292 293 312 311 
4 293 294 313 312 
4 294 295 314 313 
4 295 296 315 314 
4 296 297 316 315 
4 297 298 317 316 
4 298 299 318 317 
4 299 300 319 318 
4 300 301 320 319 
4 301 302 321 320 
4 302 303 322 321 
4 303 304 323 322 
4 304 414 415 323 
4 34 305 324 35 
4 305 306 325 324 
4 306 307 326 325 
4 307 308 327 326 
4 308 309 328 327 
4 309 310 329 328 
4 310 311 330 329 
4 311 312 331 330 
4 312 313 332 331 
4 313 314 333 332 
4 314 315 334 333 
4 315 316 335 334 
4 316 317 336 335 
4 317 318 337 336 
4 318 319 338 337 
4 319 320 339 338 
4 320 321 340 339 
4 321 322 341 340 
4 322 323 342 341 
4 323 415 416 342 
4 35 324 343 36 
4 324 325 344 343 
4 325 326 345 344 
4 326 327 346 345 
4 327 328 347 346 
4 328 329 348 347 
4 329 330 349 348 
4 330 331 350 349 
4 331 332 351 350 
4 332 333 352 351 
4 333 334 353 352 
4 334 335 354 353 
4 335 336 355 354 
4 336 337 356 355 
4 337 338 357 356 
4 338 339 358 357 
4 339 340 359 358 
4 340 341 360 359 
4 341 342 361 360 
4 342 416 417 361 
4 36 343 362 37 
4 343 344 363 362 
4 344 345 364 363 
4 345 346 365 364 
4 346 347 366 365 
4 347 348 367 366 
4 348 349 368 367 
4 349 350 369 368 
4 350 351 370 369 
4 351 352 371 370 
4 352 353 372 371 
4 353 354 373 372 
4 354 355 374 373 
4 355 356 375 374 
4 356 357 376 375 
4 357 358 377 376 
4 358 359 378 377 
4 359 360 379 378 
4 360 361 380 379 
4 361 417 418 380 
4 37 362 381 38 
4 362 363 382 381 
4 363 364 383 382 
4 364 365 384 383 
4 365 366 385 384 
4 366 367 386 385 
4 367 368 387 386 
4 368 369 388 387 
4 369 370 389 388 
4 370 371 390 389 
4 371 372 391 390 
4 372 373 392 391 
4 373 374 393 392 
4 374 375 394 393 
4 375 376 395 394 
4 376 377 396 395 
4 377 378 397 396 
4 378 379 398 397 
4 379 380 399 398 
4 380 418 419 399 
4 38 381 420 421 
4 381 382 422 420 
4 382 383 423 422 
4 383 384 424 423 
4 384 385 425 424 
4 385 386 426 425 
4 386 387 427 426 
4 387 388 428 427 
4 388 389 429 428 
4 389 390 430 429 
4 390 391 431 430 
4 391 392 432 431 
4 392 393 433 432 
4 393 394 434 433 
4 394 395 435 434 
4 395 396 436 435 
4 396 397 437 436 
4 397 398 438 437 
4 398 399 439 438 
4 399 419 419 439 
CELL_TYPES 400
9
9
9
9
9
9
9
9
9
9
9
9
9
9
9
9
9
9
9
9
9
9
9
9
9
9
9
9
9
9
9
9
9
9
9
9
9
9
9
9
9
9
9
9
9
9
9
9
9
9
9
9
9
9
9
9
9
9
9
9
9
9
9
9
9
9
9
9
9
9
9
9
9
9
9
9
9
9
9
9
9
9
9
9
9
9
9
9
9
9
9
9
9
9
9
9
9
9
9
9
9
9
9
9
9
9
9
9
9
9
9
9
9
9
9
9
9
9
9
9
9
9
9
9
9
9
9
9
9
9
9
9
9
9
9
9
9
9
9
9
9
9
9
9
9
9
9
9
9
9
9
9
9
9
9
9
9
9
9
9
9
9
9
9
9
9
9
9
9
9
9
9
9
9
9
9
9
9
9
9
9
9
9
9
9
9
9
9
9
9
9
9
9
9
9
9
9
9
9
9
9
9
9
9
9
9
9
9
9
9
9
9
9
9
9
9
9
9
9
9
9
9
9
9
9
9
9
9
9
9
9
9
9
9
9
9
9
9
9
9
9
9
9
9
9
9
9
9
9
9
9
9
9
9
9
9
9
9
9
9
9
9
9
9
9
9
9
9
9
9
9
9
9
9
9
9
9
9
9
9
9
9
9
9
9
9
9
9
9
9
9
9
9
9
9
9
9
9
9
9
9
9
9
9
9
9
9
9
9
9
9
9
9
9
9
9
9
9
9
9
9
9
9
9
9
9
9
9
9
9
9
9
9
9
9
9
9
9
9
9
9
9
9
9
9
9
9
9
9
9
9
9
9
9
9
9
9
9
9
9
9
9
9
9
9
9
9
9
9
9
9
9
9
9
9
9
9
9
9
9
9
9
9
9
9
9
9
9
9
9
9
9
9
9
9
9
9
9
9
9
CELL_DATA 400
SCALARS _ELEM_NUM double 1
LOOKUP_TABLE default
1201 1202 1203 1204 1205 1206 1207 1208 1209 1210 1211 1212 1213 1214 1215 1216 1217 1218 1219 1220 1221 1222 1223 1224 1225 1226 1227 1228 1229 1230 1231 1232 1233 1234 1235 1236 1237 1238 1239 1240 1241 1242 1243 1244 1245 1246 1247 1248 1249 1250 1251 1252 1253 1254 1255 1256 1257 1258 1259 1260 1261 1262 1263 1264 1265 1266 1267 1268 1269 1270 1271 1272 1273 1274 1275 1276 1277 1278 1279 1280 1281 1282 1283 1284 1285 1286 1287 1288 1289 1290 1291 1292 1293 1294 1295 1296 1297 1298 1299 1300 1301 1302 1303 1304 1305 1306 1307 1308 1309 1310 1311 1312 1313 1314 1315 1316 1317 1318 1319 1320 1321 1322 1323 1324 1325 1326 1327 1328 1329 1330 1331 1332 1333 1334 1335 1336 1337 1338 1339 1340 1341 1342 1343 1344 1345 1346 1347 1348 1349 1350 1351 1352 1353 1354 1355 1356 1357 1358 1359 1360 1361 1362 1363 1364 1365 1366 1367 1368 1369 1370 1371 1372 1373 1374 1375 1376 1377 1378 1379 1380 1381 1382 1383 1384 1385 1386 1387 1388 1389 1390 1391 1392 1393 1394 1395 1396 1397 1398 1399 1400 1401 1402 1403 1404 1405 1406 1407 1408 1409 1410 1411 1412 1413 1414 1415 1416 1417 1418 1419 1420 1421 1422 1423 1424 1425 1426 1427 1428 1429 1430 1431 1432 1433 1434 1435 1436 1437 1438 1439 1440 1441 1442 1443 1444 1445 1446 1447 1448 1449 1450 1451 1452 1453 1454 1455 1456 1457 1458 1459 1460 1461 1462 1463 1464 1465 1466 1467 1468 1469 1470 1471 1472 1473 1474 1475 1476 1477 1478 1479 1480 1481 1482 1483 1484 1485 1486 1487 1488 1489 1490 1491 1492 1493 1494 1495 1496 1497 1498 1499 1500 1501 1502 1503 1504 1505 1506 1507 1508 1509 1510 1511 1512 1513 1514 1515 1516 1517 1518 1519 1520 1521 1522 1523 1524 1525 1526 1527 1528 1529 1530 1531 1532 1533 1534 1535 1536 1537 1538 1539 1540 1541 1542 1543 1544 1545 1546 1547 1548 1549 1550 1551 1552 1553 1554 1555 1556 1557 1558 1559 1560 1561 1562 1563 1564 1565 1566 1567 1568 1569 1570 1571 1572 1573 1574 1575 1576 1577 1578 1579 1580 1581 1582 1583 1584 1585 1586 1587 1588 1589 1590 1591 1592 1593 1594 1595 1596 1597 1598 1599 1600 
POINT_DATA 440
SCALARS _NODE_NUM double 1
LOOKUP_TABLE default
1201 1202 1221 1203 1204 1205 1206 1207 1208 1209 1210 1211 1212 1213 1214 1215 1216 1217 1218 1219 1220 1241 1261 1281 1301 1321 1341 1361 1381 1401 1421 1441 1461 1481 1501 1521 1541 1561 1581 1222 1223 1224 1225 1226 1227 1228 1229 1230 1231 1232 1233 1234 1235 1236 1237 1238 1239 1240 1242 1243 1244 1245 1246 1247 1248 1249 1250 1251 1252 1253 1254 1255 1256 1257 1258 1259 1260 1262 1263 1264 1265 1266 1267 1268 1269 1270 1271 1272 1273 1274 1275 1276 1277 1278 1279 1280 1282 1283 1284 1285 1286 1287 1288 1289 1290 1291 1292 1293 1294 1295 1296 1297 1298 1299 1300 1302 1303 1304 1305 1306 1307 1308 1309 1310 1311 1312 1313 1314 1315 1316 1317 1318 1319 1320 1322 1323 1324 1325 1326 1327 1328 1329 1330 1331 1332 1333 1334 1335 1336 1337 1338 1339 1340 1342 1343 1344 1345 1346 1347 1348 1349 1350 1351 1352 1353 1354 1355 1356 1357 1358 1359 1360 1362 1363 1364 1365 1366 1367 1368 1369 1370 1371 1372 1373 1374 1375 1376 1377 1378 1379 1380 1382 1383 1384 1385 1386 1387 1388 1389 1390 1391 1392 1393 1394 1395 1396 1397 1398 1399 1400 1402 1403 1404 1405 1406 1407 1408 1409 1410 1411 1412 1413 1414 1415 1416 1417 1418 1419 1420 1422 1423 1424 1425 1426 1427 1428 1429 1430 1431 1432 1433 1434 1435 1436 1437 1438 1439 1440 1442 1443 1444 1445 1446 1447 1448 1449 1450 1451 1452 1453 1454 1455 1456 1457 1458 1459 1460 1462 1463 1464 1465 1466 1467 1468 1469 1470 1471 1472 1473 1474 1475 1476 1477 1478 1479 1480 1482 1483 1484 1485 1486 1487 1488 1489 1490 1491 1492 1493 1494 1495 1496 1497 1498 1499 1500 1502 1503 1504 1505 1506 1507 1508 1509 1510 1511 1512 1513 1514 1515 1516 1517 1518 1519 1520 1522 1523 1524 1525 1526 1527 1528 1529 1530 1531 1532 1533 1534 1535 1536 1537 1538 1539 1540 1542 1543 1544 1545 1546 1547 1548 1549 1550 1551 1552 1553 1554 1555 1556 1557 1558 1559 1560 1562 1563 1564 1565 1566 1567 1568 1569 1570 1571 1572 1573 1574 1575 1576 1577 1578 1579 1580 1582 1583 1584 1585 1586 1587 1588 1589 1590 1591 1592 1593 1594 1595 1596 1597 1598 1599 1600 2020 2019 2018 2017 2016 2015 2014 2013 2012 2011 2010 2009 2008 2007 2006 2005 2004 2003 2002 2001 1602 1601 1603 1604 1605 1606 1607 1608 1609 1610 1611 1612 1613 1614 1615 1616 1617 1618 1619 1620 
SCALARS array_000 double 1
LOOKUP_TABLE default
15.7289 15.6829 15.671 15.6342 15.5827 15.5288 15.4727 15.4146 15.3547 15.2933 15.2307 15.1671 15.1029 15.0384 14.9738 14.9094 14.8455 14.7824 14.7204 14.6597 14.6005 15.6102 15.5469 15.4812 15.4135 15.3439 15.2728 15.2006 15.1275 15.0539 14.9801 14.9064 14.8332 14.7609 14.6896 14.6198 14.5517 14.4855 14.4217 15.6218 15.5695 15.5142 15.4563 15.396 15.3336 15.2693 15.2036 15.1368 15.0693 15.0017 14.9341 14.8672 14.8011 14.7364 14.6733 14.6122 14.5533 14.4968 15.5574 15.5012 15.4419 15.3797 15.3149 15.2479 15.1792 15.1091 15.0382 14.967 14.8961 14.826 14.7573 14.6903 14.6255 14.5633 14.5039 14.4476 14.3946 15.49 15.4296 15.3659 15.2991 15.2297 15.158 15.0846 15.0102 14.9353 14.8606 14.7869 14.7147 14.6448 14.5775 14.5134 14.4529 14.3961 14.3433 14.2946 15.42 15.355 15.2866 15.215 15.1407 15.0643 14.9863 14.9075 14.8288 14.751 14.6748 14.6011 14.5306 14.4638 14.4011 14.343 14.2896 14.2409 14.197 15.3476 15.2778 15.2045 15.128 15.0487 14.9674 14.8849 14.802 14.7197 14.639 14.5609 14.4862 14.4158 14.3501 14.2896 14.2346 14.1851 14.1411 14.1024 15.2731 15.1985 15.1201 15.0385 14.9543 14.8683 14.7814 14.6946 14.6091 14.5261 14.4465 14.3715 14.3017 14.2377 14.1799 14.1285 14.0834 14.0443 14.0112 15.1971 15.1174 15.0341 14.9475 14.8586 14.768 14.677 14.5868 14.4986 14.4137 14.3333 14.2584 14.1898 14.128 14.0734 14.0259 13.9853 13.9514 13.9237 15.12 15.0353 14.9471 14.8559 14.7624 14.6678 14.5732 14.48 14.3896 14.3035 14.2228 14.1485 14.0816 14.0224 13.9711 13.9276 13.8917 13.8628 13.8405 15.0421 14.9528 14.86 14.7645 14.6671 14.5689 14.4714 14.3759 14.2841 14.1972 14.1168 14.0437 13.9787 13.9222 13.8743 13.8348 13.8033 13.7792 13.7619 14.964 14.8703 14.7735 14.6743 14.5736 14.4727 14.373 14.2761 14.1835 14.0967 14.0169 13.9453 13.8825 13.8288 13.7841 13.7483 13.7209 13.7011 13.6883 14.8861 14.7886 14.6884 14.5863 14.4832 14.3804 14.2795 14.182 14.0894 14.0032 13.9247 13.8549 13.7942 13.7431 13.7015 13.669 13.645 13.6289 13.62 14.8089 14.7084 14.6056 14.5013 14.3968 14.2932 14.192 14.0948 14.0031 13.9182 13.8413 13.7734 13.7149 13.6662 13.6272 13.5973 13.5762 13.5631 13.5573 14.7328 14.63 14.5255 14.4203 14.3153 14.2119 14.1115 14.0155 13.9253 13.8423 13.7674 13.7016 13.6453 13.5987 13.5617 13.5339 13.5149 13.504 13.5005 14.6584 14.5542 14.449 14.3437 14.2394 14.1372 14.0386 13.9447 13.8568 13.7761 13.7036 13.6399 13.5856 13.5407 13.5053 13.479 13.4614 13.4519 13.4498 14.586 14.4813 14.3764 14.2722 14.1695 14.0696 13.9736 13.8826 13.7976 13.7198 13.6498 13.5884 13.5359 13.4925 13.4583 13.4328 13.4159 13.4069 13.4054 14.5159 14.4118 14.3082 14.206 14.106 14.0093 13.9167 13.8292 13.7477 13.673 13.6059 13.5468 13.496 13.4539 13.4203 13.3952 13.3783 13.3692 13.3675 14.4484 14.3459 14.2446 14.1454 14.049 13.9561 13.8676 13.7842 13.7066 13.6354 13.5713 13.5145 13.4655 13.4243 13.3912 13.366 13.3486 13.3387 13.3361 14.384 14.2839 14.1858 14.0905 13.9983 13.91 13.8262 13.7472 13.6738 13.6064 13.5453 13.491 13.4436 13.4034 13.3705 13.3449 13.3266 13.3155 13.3113 14.3226 14.2259 14.132 14.0411 13.9539 13.8707 13.7918 13.7177 13.6487 13.5852 13.5273 13.4755 13.4298 13.3906 13.3578 13.3317 13.3122 13.2994 13.2932 14.5932 14.4892 14.3868 14.2865 14.1887 14.0939 14.0025 13.915 13.8317 13.753 13.6794 13.6111 13.5485 13.4918 13.4413 13.3971 13.3593 13.3282 13.3037 13.286 14.3087 14.4083 14.2115 14.117 14.0258 13.9382 13.8547 13.7756 13.7014 13.6323 13.5688 13.511 13.4593 13.4139 13.3749 13.3425 13.3167 13.2977 13.2854 13.2798 
